151
 energy: -221.325615518670 gnorm: 0.005000139062 xtb: 6.7.1 (edcfbbe)
C            9.36305744460901       17.52921759673195       22.42084389235646
N            9.89462406232370       15.62348069398073       24.48923453639251
O            9.67942591569474       15.28062175200285       21.46032095253386
C           10.28816128311045       16.33179396149461       22.21890039165815
N           13.19484209686013       15.02154291376582       21.49181960176091
O           16.33642888200410       19.56747944016033       23.14946461577861
C            8.43353689133543       14.80045583113879       21.93128429991633
N           19.18746551553675       21.27637849462800       22.45264307879733
O           27.95307477796386       18.46621147735891       13.68538053515783
C           10.80458198438177       15.78105775783830       23.53678257529454
N           20.56782313975897       21.26895191433801       22.68177009545930
O           24.54976804268384       21.65227188146440       17.48486230920205
C           10.24450536440356       15.09318815476340       25.64936160103160
N           21.35514050410237       20.82408683334038       19.30602175034853
O           21.31798603335002       22.90594545907778       20.13425392134018
C           11.53570671737540       14.68060733916671       25.92961091121875
N           22.37089608861309       21.55920532429117       16.92418233370329
O           20.06426537871643       18.55299073605336       18.32542922061513
C           12.49631279678332       14.84972780425732       24.94804446240173
N           25.71498970183085       18.66977484738949       14.00901974610131
O           22.64654179488710       20.86045697243966       21.91763105527755
C           12.14753455520072       15.41151923177767       23.72070100225575
N           27.88860244207834       20.06888162642205        8.76762291801039
O           16.48518025021592       21.80859514032243       23.15859557413190
C           13.19299212282541       15.64387046981084       22.71900906376716
N           17.81794262029899       17.15408355851100       19.32652493682471
C           12.43294200848803       13.84660506440184       21.15030842342621
C           13.10515210343556       12.58284304874510       21.68433401540680
C           14.27379799206905       16.49354408608800       22.82873113816108
C           14.66190690603632       17.30283282631446       24.02576798000977
C           14.19268253245633       18.77496161004020       24.03914139042172
C           14.50770854771260       19.37815232736746       25.41109026987191
C           12.69098893341204       18.86247877818872       23.77146663861000
C           14.91194768222686       19.58407859843009       22.95141858089445
C           16.98543481018517       20.70732299566478       23.23754072422926
C           18.47633917836330       20.49673770186318       23.46540788600879
C           21.43314488208818       20.84527010846250       21.74536102506431
C           20.79464320682410       20.22868736910296       20.50017572067923
C           21.55278890813171       22.13840261922569       19.20318880310507
C           22.11184961175789       22.64283352363194       17.86846807361588
C           21.28510433746887       23.81572707438118       17.28318281188438
C           21.77181678982411       25.11964507230644       17.91830878556999
C           19.77612269912927       23.68807509182994       17.49410144584133
C           23.63672414976427       21.11821246364826       16.85425211873879
C           23.99278073813553       19.92403527993205       15.94302355322506
C           25.37661058122039       19.38673182981284       16.31456809011898
C           25.77156398111033       18.23782184894988       15.38699507635189
C           26.83517125102288       18.78931549094796       13.27552309106100
C           26.66252135791477       19.32743575788428       11.95093348948686
C           26.71981818614921       19.75475166167487       10.82572976912847
C           26.63850285776878       20.33873623226010        9.49188407601751
C           29.09651382532081       20.30898298833900        9.52880833853741
C           27.97881197260235       20.70113069302045        7.46712485084421
C           25.47119851088451       19.63504847345741        8.77569455087961
C           26.31475904195560       21.83755779318393        9.67593283809986
C           24.41204006669876       19.12936505053939       13.59491282332819
C           23.96402222276404       20.31184411956286       14.46136428785047
C           21.23745070388950       21.06010092813766       16.16696956459181
C           21.06748866271612       18.72211540682641       20.50295754561013
C           20.10168640836238       17.94404656152950       19.60545277659935
C           18.69989892801502       17.86420875682149       20.22749097148116
C           17.77425898220600       17.81475264197277       18.03441756674113
C           19.18894274176730       17.85511894548268       17.46058690798799
C           21.00429492520061       21.77160200682727       23.97211137290230
C           20.35205030986246       20.93161072832594       25.07066656142928
C           18.83368804515655       20.94011348372489       24.89562529016895
C           14.98807866338815       16.39040826645161       21.59745467065139
C           14.29213179576280       15.45437232055142       20.79880052665631
C           14.75033643955345       15.11893428550861       19.52942441991419
C           15.89791197892416       15.72083824118550       19.07327858342794
C           16.61214865868737       16.65531454183147       19.84953637773971
C           16.15438377786182       16.98777450772767       21.11303443052661
F           23.07896976192637       18.88116509239004       16.16988354332044
H            8.90074088876276       17.79110434813436       21.47221027734525
H            8.59550409968311       17.29173679466565       23.15107659963047
H            9.93947423591634       18.37619327687644       22.78090295185821
H           11.13822566104387       16.62128747403601       21.59157247749848
H            8.27046273913974       13.85698806920640       21.41328168393455
H            8.45606374052645       14.63200989122452       23.01040461062547
H            7.62549688335143       15.49408216329936       21.68674361907392
H            9.44672262848137       14.99826427775383       26.37362126210579
H           11.77951702321694       14.24068935261469       26.88314696542788
H           13.51627350694821       14.53594148305546       25.11679568719526
H           11.42631971234313       13.94216503510031       21.55819144332693
H           12.35172737920560       13.80131583553869       20.06292226013818
H           13.14367783692473       12.60708856058936       22.77132669620551
H           12.54603769022389       11.70499038011882       21.37485807544776
H           14.12157956303938       12.50623266805150       21.30364263937353
H           14.25017460995899       16.82719340114866       24.91749621841396
H           15.75066541229944       17.29636947185801       24.10848247411541
H           13.95003569529978       18.86072494026329       26.18706702412579
H           15.56905000397117       19.29159293285280       25.63390501854785
H           14.23621491787767       20.43164784866826       25.43594179443016
H           12.35287039164538       19.89409720692700       23.82707727978245
H           12.45902310328361       18.47104045427943       22.78474842441406
H           12.14657466106934       18.27919672123343       24.51000083469622
H           14.57597311440339       20.62509342298733       22.95983240293942
H           14.72459564720768       19.14564621709105       21.96859351672083
H           18.72750156018898       19.44229565488404       23.31553601588719
H           18.84293896457251       22.23864604259822       22.46920271947016
H           19.72054875971228       20.43793994259297       20.53777686237028
H           21.50449450959873       20.18759875843503       18.53654241099558
H           23.10314220217119       23.04254553784555       18.12281062796972
H           21.49756080639473       23.85914673553418       16.21052470954767
H           22.80924197207293       25.31608815032811       17.65640573598057
H           21.16418744811667       25.95544901778284       17.58210119611843
H           21.69644430922402       25.04788345067123       19.00107222808873
H           19.28443465170696       24.57528176116814       17.10246055810092
H           19.35705715416436       22.82155285854412       16.99510294096591
H           19.55410739704853       23.62308747741127       18.55674952181800
H           26.09334151966366       20.20411103465686       16.23958975212550
H           25.36493905202855       19.04610868141706       17.35000587128662
H           25.08156846432780       17.39937626896351       15.52259507611511
H           26.78968074054701       17.90927591459640       15.60007903786289
H           29.04352409491824       19.79504881712332       10.48937264071336
H           29.94088528670284       19.90110696933005        8.96869373488983
H           29.29530140510014       21.37855631046185        9.71217218318080
H           28.83000094992570       20.26697082140832        6.94297243169807
H           27.08458633582556       20.49774832654855        6.88583541270304
H           28.13500662137919       21.78884775280035        7.52436614366015
H           25.20827384948064       20.15580025232524        7.86027936816496
H           25.75707376179277       18.61461361772798        8.53822593871495
H           24.59968923015979       19.61788849397807        9.42391507145130
H           27.14349753553115       22.34951207438445       10.16009088570636
H           26.12167453885059       22.30027252551334        8.71234581734480
H           25.43199120251296       21.94747660086873       10.29995681216015
H           24.45233487576386       19.42409829125751       12.54575676299909
H           23.70119649629396       18.30472928810026       13.71378034386666
H           22.96666280399301       20.62251546630074       14.15809985346805
H           24.64884762723441       21.15088814721517       14.33208190672980
H           21.44128391217636       20.09050256226296       15.73173763954238
H           20.38530924239701       20.95118221163143       16.83440439573362
H           20.98219333206616       21.76463287794900       15.37439659022309
H           22.09616498504401       18.56482276816677       20.17641612609430
H           20.97816412667048       18.33952698651788       21.51946271629671
H           20.47401832459498       16.91254493245027       19.48943476805707
H           18.33225482082561       18.88147160263881       20.44243120591712
H           18.77155346947813       17.30497305645019       21.16107287990623
H           17.11628358096758       17.27377435623156       17.35803072827868
H           17.40181277989785       18.84876488434212       18.13881153981422
H           19.21129304565873       18.39160111794790       16.51226086607734
H           19.55610824287940       16.83014186113210       17.31620440950043
H           22.09151398586887       21.70091894244721       23.99686276466126
H           20.70941616755099       22.82267214113145       24.06065902731904
H           20.61875531270158       21.33626019691619       26.04554745097668
H           20.72573830456844       19.90881126483432       25.00466311477776
H           18.44334747673426       21.94871527188711       25.05256265378679
H           18.36270422211793       20.27124378088721       25.61573959414186
H           14.23180863440250       14.40023980358026       18.91389363445963
H           16.27906928113612       15.45059335588454       18.10084180724506
H           16.67606941629093       17.69755024731639       21.73260212009464
