151
 energy: -221.325342525065 gnorm: 0.009252637800 xtb: 6.7.1 (edcfbbe)
C            9.68213764598879       17.14578676084170       21.64609088287511
N           10.03751998977460       15.09770271029631       23.58555005668529
O           10.29451860960971       15.04435958171025       20.51572583328797
C           10.70863396057679       16.02793094703503       21.46576264316535
N           13.82377935097571       14.87586072961869       21.12057061714702
O           16.02918350784988       19.72230386180318       23.23291612453762
C            9.06368737082084       14.39411460451002       20.77325965690580
N           18.69063815491203       21.79159779118817       22.27303670539839
O           27.30434313328865       17.71069520530032       13.38767593873288
C           11.06466118475067       15.38266902295699       22.79492719376437
N           19.89151153786922       22.31334339785408       22.76640532621144
O           25.09924470623820       21.52537269825240       17.28500885406303
C           10.24947622494127       14.51246367057492       24.75131952531693
N           21.92917569026576       21.32041565814471       20.03742982745106
O           21.02276956298414       23.34563897507510       19.71022790623435
C           11.51238430656960       14.16557681205039       25.20059212465256
N           22.85618054185651       21.53793786997856       17.41682078282626
O           21.10515926174947       18.66200806722552       19.41526840522116
C           12.59034018100651       14.45790363095801       24.38572730530850
N           25.17479487264884       18.13531896368464       14.05918089536526
O           22.13372628717912       22.44806406109849       22.59321647266072
C           12.38756869614066       15.08131763330787       23.15376745561766
N           26.40638375161982       20.07162902652921        8.74501736933205
O           15.94779030910427       21.58880574321259       21.99690972141785
C           13.55997010605229       15.43876617514048       22.34764171970997
N           18.65084282529323       17.34733195967986       19.97931372483248
C           13.16195802667291       13.73397554480136       20.54759065148614
C           13.89575387794696       12.43463036925458       20.88009469951553
C           14.54906315023334       16.33887256031314       22.68392968731575
C           14.69082509429118       17.11359710140623       23.95558262884916
C           14.04460780291203       18.51450672632346       23.96667878682632
C           14.25108156275798       19.14373262208585       25.34628035873077
C           12.55085896603048       18.41511292924367       23.66334095484698
C           14.66933112152668       19.40848768829385       22.89180262921749
C           16.52981567188115       20.83832916061289       22.75215417645042
C           17.91098869806935       21.13215412375325       23.31169168831025
C           21.06656818772350       21.98681191653622       22.20544324477754
C           20.98335805426232       20.96195475094755       21.06949201194366
C           21.86111063251645       22.50597567022514       19.41850163475479
C           22.93287739326867       22.67511861302303       18.33511818314377
C           22.94436031389769       24.02887043915953       17.59014987884940
C           23.26417228451377       25.15167385707529       18.57859325861348
C           21.65463657980903       24.34414018252829       16.83498145200702
C           24.01562070794182       21.01035860814400       17.00663154707843
C           24.01657071816778       19.73269211376724       16.14621122228980
C           25.33845852071964       18.98349263331745       16.34576468678406
C           25.42123758675125       17.75965896135375       15.43167734796919
C           26.17172803163785       18.13491245132517       13.15366219910109
C           25.81033239803954       18.65267985014689       11.85907216683772
C           25.61302782459902       19.09644123647493       10.75644759361032
C           25.20081093724676       19.66978344857551        9.47863691398851
C           27.26938419486929       20.97105144158780        9.48310264146727
C           26.17491781917593       20.56513033242394        7.40391062593301
C           24.45779398760062       18.55759348020053        8.71898623242275
C           24.22240570975810       20.82345258116501        9.79441334245501
C           23.89081843238960       18.75879893102045       13.84934714131352
C           23.80854031518135       20.05423393363415       14.66319219167400
C           21.52986341526434       21.03573944168581       17.10231223860771
C           21.27621641281749       19.56627979650333       21.62670866816840
C           20.71326134498657       18.43535837144916       20.75607526409968
C           19.18458863620110       18.31455889653650       20.91744738896691
C           19.04334824698207       17.69774001506099       18.62648495836228
C           20.56705895915816       17.67110668851932       18.55903217710643
C           19.79314192555715       23.22381443565840       23.89396073379576
C           19.08229624851050       22.50854101322179       25.04232929365232
C           17.71949880848512       22.01578614338315       24.56075068839321
C           15.48005217537748       16.33423101202898       21.60222981217195
C           15.00633264711445       15.39080068580491       20.66375149272023
C           15.74442582529007       15.10592738749905       19.52274705854757
C           16.93111439392654       15.77210551187067       19.32626423906649
C           17.40915127869205       16.75336388968633       20.22199942516152
C           16.66821800959478       17.02785259650311       21.36297078318643
F           22.99077072700964       18.87559438415462       16.56020075329442
H            9.31618310071342       17.46170016764786       20.67186370829894
H            8.85254988346046       16.79821618833715       22.25534806667264
H           10.14670968656984       17.99127215286053       22.14236914652020
H           11.62050011356315       16.42896890713288       21.00595139339083
H            9.06195646746531       13.92139944890742       21.76124144177729
H            8.22058346438449       15.08809180808644       20.70641519557393
H            8.97487376974398       13.63629972100226       19.99604633522921
H            9.36283625331233       14.31658870448580       25.33936183417385
H           11.64554236359685       13.68291704414364       26.15572661076698
H           13.59441640708597       14.19723551577671       24.68674731657485
H           12.13977454567953       13.69324842962573       20.92529775405846
H           13.10958861841368       13.87469023198021       19.46458936450443
H           13.94710175411893       12.29789739993294       21.95808138876919
H           13.36713404163790       11.59209995676023       20.44703380849946
H           14.90899150006900       12.45655032631566       20.48736696808661
H           14.24716488708019       16.54520265784091       24.77455630799484
H           15.75683227096769       17.23143424725493       24.16081797314747
H           13.71044394033471       18.57673217672382       26.09842528257423
H           15.30525486650496       19.15124442004387       25.60835337428558
H           13.88308478420342       20.16668091033264       25.35634237398135
H           12.07944328639714       19.39133985821309       23.74233269089588
H           12.40263969371387       18.03512341007874       22.65694476448293
H           12.06545688805796       17.73953474110313       24.36324614317881
H           14.11764035558470       20.35072605020842       22.80180499903498
H           14.66532558660800       18.90973211630937       21.91832827473833
H           18.40796498071379       20.19755470504991       23.58456947213266
H           18.12578528036559       22.53810751140654       21.86008292439987
H           19.97367800680358       21.01517889993288       20.65370016829625
H           22.66115869616284       20.66465786902924       19.82435196919542
H           23.90718148355888       22.59894944093557       18.83855051096797
H           23.76792205758422       23.95987320948796       16.86839022438175
H           24.22466477535784       24.98094150276358       19.06020782637305
H           23.30051146432658       26.10391238262299       18.05666048768206
H           22.49330131552126       25.20125422312013       19.34424788779134
H           21.46844564513054       23.62395123748713       16.04542728512482
H           20.81681130483225       24.36033144429725       17.52539882434997
H           21.74298347417947       25.32645138472443       16.37957934490391
H           26.15346086755217       19.67738983875673       16.13893098935888
H           25.41688919772015       18.67007309209450       17.38678159414864
H           24.67351303242513       17.02090670065295       15.73475389773226
H           26.41538677444535       17.31355442737025       15.48690389249498
H           27.41992798173667       20.58812629036787       10.49148409663244
H           28.23581984978716       21.00904839780774        8.98157727443450
H           26.87645064062940       21.99777056779141        9.54663243727121
H           27.14556446011024       20.71915138898189        6.93471308551653
H           25.63154986158604       19.82663922742766        6.82114567594761
H           25.63037705445589       21.52021752126131        7.37845469062677
H           23.89766776313724       18.97016346146358        7.88397753231431
H           25.17311596134002       17.82486984241226        8.35398332373268
H           23.76035637925126       18.06081247041860        9.39106886650284
H           24.69724753919979       21.56713414112966       10.43054292939485
H           23.89494429434269       21.30024296229289        8.87365254956313
H           23.35201083800002       20.43090194977153       10.31192467571734
H           23.75258537145481       18.96393656975594       12.78786777307104
H           23.11268868044743       18.06725771670033       14.18882800353999
H           22.84253401377389       20.52885157906965       14.50157564786279
H           24.59391606381339       20.74415470978268       14.35148676916279
H           20.81583348238147       21.83598574821914       17.27176063713788
H           21.46777141781285       20.72118698077477       16.06483614860923
H           21.27362349064975       20.19646215513447       17.74852843737985
H           22.35757341993847       19.45737822486714       21.71982339104765
H           20.84444675137101       19.47776409643415       22.62300519488798
H           21.15314707626544       17.47922959613252       21.08659605907649
H           18.71557149981705       19.30222824551934       20.78379308966143
H           19.00045956320923       17.96722710302953       21.93338618559461
H           18.62998236965733       17.00163573347583       17.90453562986523
H           18.69829020292578       18.71351469699703       18.37724157593640
H           20.93012642499972       17.90086793412340       17.55791061252316
H           20.93303274310468       16.68116267306992       18.86477228354275
H           20.80727133028867       23.52014816438829       24.16122290348782
H           19.22726095069341       24.10978945631282       23.58559323026503
H           18.96280989859927       23.19056936157164       25.88337800341747
H           19.68808503583872       21.66061687945790       25.36615375379668
H           17.09119325060050       22.86794607609232       24.29277051759707
H           17.21543596440470       21.44380416291897       25.33823068736132
H           15.41532569633455       14.37068697310436       18.80572110211395
H           17.51872646404844       15.50608449597851       18.46273096999756
H           16.98695290050238       17.76661589866357       22.07899861632523
