151
 energy: -221.325971966825 gnorm: 0.009321010561 xtb: 6.7.1 (edcfbbe)
C            9.40054770250868       17.68182474416800       22.44863633095130
N            9.77623171240862       15.64057634204415       24.40447554031573
O            9.63949581882245       15.49070517958858       21.34310654041717
C           10.27337837069076       16.45633613586715       22.18999806328660
N           13.13120269526522       15.00536149194127       21.47728250334522
O           16.27110821004483       19.46214307377022       23.31117556904746
C            8.34471815126234       15.06556488296164       21.73674697689055
N           19.05225977067974       21.23595316408747       22.44708595358910
O           28.19615554251475       18.62466667960100       13.65056069798197
C           10.72091253676740       15.79897522318192       23.48611534763320
N           20.42715786677066       21.36259933681905       22.67655920841401
O           24.67142333740395       21.75296563133049       17.40632399413845
C           10.06451447510989       15.04107384392899       25.54695598839891
N           21.38077457357923       20.85051752039582       19.31204300306775
O           20.97093190994691       22.98496808340153       19.86385625456477
C           11.32671092403038       14.55709429411663       25.84520317494801
N           22.48836778233914       21.45225239203310       16.93719922516834
O           20.01953620827104       18.60292055086734       18.43808437143945
C           12.32304280184855       14.72409930555276       24.89884695127446
N           25.96392657879379       18.70425687894939       14.03888601684178
O           22.52863063943766       21.18889892807578       21.89190521631456
C           12.03818758639448       15.35519296315930       23.68939817465603
N           27.83420564818099       20.06725266829246        8.68841257732530
O           16.35310250332302       21.69580551437287       23.13288574902271
C           13.12244570082691       15.58057644996435       22.72789074965339
N           17.80720800406539       17.15263890106555       19.44334200533680
C           12.32139492484265       13.88377818936206       21.07263183124414
C           12.89971218598859       12.57079686412099       21.60233099943786
C           14.23343317185359       16.37979943441873       22.89542956471341
C           14.65159282860999       17.10904923420584       24.13315267714275
C           14.19136484011695       18.57851132039225       24.25484016010700
C           14.59663811023872       19.10647712607036       25.63355184662889
C           12.67671300639338       18.68396713804977       24.08783383909600
C           14.84156705083739       19.43726851930185       23.16297460029088
C           16.89047434705759       20.62144238972073       23.28868347159054
C           18.38886987056879       20.47867149323484       23.50597929457641
C           21.32290888008929       21.01936916573292       21.73979774726250
C           20.75051594794586       20.32615536687791       20.50333104634865
C           21.44347914854993       22.16461039772351       19.08182910150887
C           22.16441698661681       22.58496849205468       17.79919173795041
C           21.46952069637489       23.74657398169840       17.04229469867153
C           21.96051083312091       25.07535258707238       17.61772753981183
C           19.94316274315925       23.70870160464314       17.09013728877762
C           23.78401656621943       21.11726233538124       16.83284557484537
C           24.20304048999501       19.90926495767887       15.96808228937032
C           25.63444002778393       19.49618343981789       16.31809795339739
C           26.09073136439357       18.33859865177425       15.43033657824830
C           27.05208387408079       18.88688715813729       13.27242789689931
C           26.81265199604733       19.38808292047993       11.94444039961531
C           26.79546826416113       19.81197998852264       10.81708834525526
C           26.63757320336813       20.37942916640480        9.48289537612166
C           29.09040062888230       20.32407806682096        9.36180460994037
C           27.84628337071543       20.64861281666268        7.36090747194837
C           25.40870377960519       19.69963437150025        8.85259528136673
C           26.36512322305063       21.88806720361470        9.66572280204436
C           24.61698199089720       19.04311263952102       13.64455756281257
C           24.09285878517628       20.21976619844266       14.47347344384015
C           21.38031638979923       20.85176868537500       16.21677623491545
C           21.00825571354835       18.82196261198832       20.61306725417992
C           20.07062336618249       18.00185086362135       19.72029810039493
C           18.67149204394707       17.88233997209024       20.34626852530470
C           17.74385849717321       17.82916598257001       18.16053487085865
C           19.15446282807199       17.89055340210277       17.57893241620812
C           20.81435378875639       21.96377833852244       23.94074121463444
C           20.24077797577303       21.11825984312329       25.07714742983583
C           18.72614880358550       21.00562164216144       24.91533770910405
C           14.96735276478025       16.30408152128211       21.67367241856001
C           14.26126918215230       15.41840493771202       20.82780615530497
C           14.74389864801654       15.10515191845134       19.56157767550517
C           15.90825207350739       15.70267479481226       19.14537524597201
C           16.61111573538298       16.61910825935059       19.95417745026194
C           16.14514610282375       16.90705704550517       21.22528368184991
F           23.38055879092708       18.81438026625636       16.27951690950314
H            8.99881417431088       18.04451815535447       21.50578749690712
H            8.58775733852369       17.42511374664669       23.12153586785882
H            9.99777579070972       18.46459793277467       22.90647790013071
H           11.15831825954059       16.74198883990091       21.60749266793840
H            8.14337570692322       14.17076609279744       21.14836818646204
H            8.31217173381707       14.82200595271502       22.80441674017218
H            7.59159747765472       15.82991204045490       21.51196328240394
H            9.24097363044203       14.95276416049726       26.24290408198905
H           11.52205562428247       14.06269636884617       26.78388398332136
H           13.32092309751707       14.35317264117920       25.08067351719443
H           11.30446363207493       14.02643680026832       21.43931937820660
H           12.28637090626629       13.86808923880954       19.98172500773194
H           12.90838998837960       12.57594883233446       22.69042662889112
H           12.29573134189546       11.73505882256984       21.26172109153644
H           13.91951675474031       12.43800421332413       21.24732922560375
H           14.26534629918235       16.57714106477665       25.00475729527644
H           15.74209055848961       17.09539082035941       24.18173925545804
H           14.08915257330664       18.54523073601416       26.41442758911714
H           15.66944901573390       19.00621255449089       25.78165716183295
H           14.32971818925420       20.15680877758519       25.73509140100399
H           12.34558160019975       19.70818869031005       24.24197442161508
H           12.38606380769429       18.36916405294760       23.08955207978770
H           12.17505633471629       18.04597898999867       24.81136172008919
H           14.47448148279801       20.46782109066707       23.21048877932430
H           14.62600316286632       19.02087919527752       22.17543938606902
H           18.68020901893042       19.42813570319246       23.40950314461806
H           18.62627806955878       22.16447999781298       22.38574967068958
H           19.67857327733270       20.54314618850890       20.46160998900139
H           21.82368810915266       20.18882747245302       18.69514891792195
H           23.13571977611614       22.96419790766548       18.14690275639036
H           21.79948557468520       23.68362440778132       15.99892918226983
H           23.03289217425229       25.18731849272399       17.46733500053195
H           21.45093153986422       25.90994261284714       17.13730912694153
H           21.75361665333820       25.10858429964131       18.68685603371782
H           19.54650512365384       24.52372080472354       16.49036278304001
H           19.53980815675877       22.77653569176998       16.71027327786175
H           19.60245501367367       23.84208617924092       18.11401088597945
H           26.28463995593122       20.36094418177948       16.18701901984861
H           25.67654643249750       19.20176939161129       17.36702781507226
H           25.47358341264874       17.45694706330472       15.62527963066044
H           27.13680317945935       18.09963059053098       15.62392187748063
H           29.09376023677330       19.84701528778539       10.34063458310012
H           29.89195004020628       19.89006634590607        8.76486981664818
H           29.30478353481033       21.39716995836791        9.49216113890654
H           28.65230719586913       20.17778179843875        6.79838710382717
H           26.91104652509077       20.44129788283263        6.84995390869954
H           28.02476301193085       21.73427442013487        7.36591838682641
H           25.08445336537604       20.23217214596456        7.96389011044629
H           25.65779875217662       18.67615779564440        8.58792136873189
H           24.58850494650305       19.69223898275909        9.56551148637010
H           27.22390541877470       22.37924134095928       10.11752023336810
H           26.15491892303812       22.34837277557886        8.70403636807370
H           25.50635105454575       22.02898950230127       10.31629085629191
H           24.60694321356560       19.29055152276862       12.58331204595582
H           23.98191568030501       18.16858028505823       13.81919406871119
H           23.06066494814872       20.41979081630058       14.19474481100242
H           24.69025377334010       21.11150490868187       14.27984093088405
H           21.61785738267145       19.85088854958041       15.87794954562473
H           20.52551655590127       20.77779640848266       16.88744380189016
H           21.11199824160867       21.47239289609131       15.36034137472725
H           22.04793744343283       18.63531868127765       20.34154572031198
H           20.87057349959997       18.50360727579861       21.64603104074818
H           20.47346766766361       16.98132552074813       19.61106080840309
H           18.28022257895976       18.89024689899062       20.56495833589955
H           18.76242515568143       17.32266226578938       21.27748252843708
H           17.08445264514398       17.29381555254366       17.48103901700406
H           17.36471733149223       18.85824433659326       18.28433682085607
H           19.16263890434834       18.42601885499974       16.62928300678860
H           19.53415536171647       16.86949509785194       17.43281415976825
H           21.90297366145749       21.99571010068542       23.96385668302147
H           20.42242177006820       22.98580529156511       23.98433630574648
H           20.48069615224911       21.57970391253432       26.03402812262327
H           20.69366631226208       20.12605677763764       25.04687016789495
H           18.26585811686054       21.98965526434510       25.03606813645337
H           18.30869760626322       20.33384553199330       25.66482191689449
H           14.22888761960163       14.40720818531706       18.91952252831792
H           16.30865220885327       15.44903041119791       18.17635541105963
H           16.66440832210500       17.59450213609765       21.87156758448053
