151
 energy: -221.325446114661 gnorm: 0.004756156467 xtb: 6.7.1 (edcfbbe)
C            9.59810438222636       17.43081050955156       21.50482174335890
N            9.80541280699112       15.78855306834186       23.82455375614592
O           10.09641739392814       15.10802568619912       20.84698688966347
C           10.55798440331099       16.24574873614703       21.58025007147925
N           13.56535533245311       14.87339283645465       21.52413903506984
O           16.33313333203776       19.73181039787528       22.88090677313009
C            8.79217847010687       14.64557162497467       21.14879670526449
N           19.17169149064693       21.53347658829436       22.41590154680141
O           27.87304968774339       18.46874448514401       13.59751608540331
C           10.85733572974837       15.85949840896754       23.01849916766110
N           20.51121346409807       21.61938401680003       22.80466806430901
O           24.75383336004068       21.58894792045883       17.33415696587543
C            9.96910432342408       15.42450695944752       25.08487045596911
N           21.65871841672272       20.80798246127282       19.60917278074437
O           21.25340492094933       22.95934695464529       20.09145040799612
C           11.20454847654248       15.10786216872247       25.62361986733410
N           22.52933602959480       21.30720144061984       17.12604767218373
O           20.69851321925633       18.26801860294563       18.84194768822233
C           12.30962110508032       15.18221132450029       24.79411235822449
N           25.66077971027066       18.31796069070663       14.09456310587805
O           22.67985353054059       21.27110789808502       22.30593655921764
C           12.15659695868486       15.56225736662905       23.46156459072342
N           26.93812767340960       20.46760787339388        8.84123439565884
O           16.39038420560592       21.97080606523761       22.72074857125529
C           13.34901038123910       15.68242040123333       22.61578138907407
N           18.43250488314426       16.85352537613561       19.78431295695499
C           12.84531239467974       13.66337064232624       21.21955234679556
C           13.37128231766091       12.48287451021086       22.03526543674156
C           14.39092790224520       16.57338979643040       22.76588447449561
C           14.57724350600771       17.56681020638153       23.86967645117171
C           14.09762525873156       19.00788514527317       23.58820356630786
C           14.21899861469834       19.82546041747738       24.87719151875400
C           12.64691249966310       19.01048447552249       23.11054986666602
C           14.95238521350499       19.65849016787616       22.49158855587986
C           16.91949982255760       20.90747134668891       22.95604994168234
C           18.37432539547227       20.78360546970687       23.38525800480386
C           21.49338290655826       21.14289019469539       22.02346581890520
C           21.02677116895311       20.32504719832897       20.81789487494135
C           21.67994080549731       22.11020183775490       19.31379903659404
C           22.31218494095587       22.47903695926929       17.96921716245648
C           21.59282928160802       23.63883453984623       17.23282886377322
C           22.11361608838630       24.97187308419602       17.77200183808867
C           20.06836278877039       23.61762236033019       17.34258485184269
C           23.80024388710835       20.93551916667759       16.91012741506244
C           24.10233940141372       19.66085126930323       16.09581204683895
C           25.54397732226471       19.21406551852403       16.35214310453241
C           25.89748236047932       18.00353553830990       15.48562764904865
C           26.69235536870558       18.63618471226655       13.28672714295416
C           26.32129037016555       19.18543543838762       12.01007051322700
C           26.13866872036262       19.71881840969805       10.94598673278912
C           25.75740943027283       20.38990935337079        9.70821894470373
C           28.09389509032554       21.07459142196391        9.46852956651693
C           26.70665441664992       21.04469163331888        7.53366099090032
C           24.66944409015747       19.52367218953918        9.04908880503977
C           25.15780845663324       21.75722071221940       10.10757383842440
C           24.28568070794433       18.64794765374193       13.80726854568524
C           23.86464698979488       19.88902371007592       14.59962001520573
C           21.34432018358373       20.70874080913097       16.54068175577020
C           21.39741590003263       18.86004571336619       21.06181599646558
C           20.59622595306713       17.88031517958007       20.20137211542832
C           19.12729189943542       17.78811232383465       20.64514751925410
C           18.53181487880565       17.28032639413372       18.39833902053914
C           20.00682319557333       17.35654894392228       18.01231387331468
C           20.76732763884042       22.21702755372240       24.10391280826389
C           20.02900065467663       21.39514446906689       25.16203827704410
C           18.54149311076501       21.32641519605065       24.81600689867087
C           15.30332368269380       16.30323738526493       21.70236168258428
C           14.76168306696431       15.22569013300275       20.96418161248205
C           15.43969294285633       14.69965916380900       19.86984765318219
C           16.63604267042783       15.27161208318320       19.51105932808377
C           17.18456352641871       16.36448319266111       20.21246806755652
C           16.52151210654624       16.86898851029374       21.31789933469278
F           23.27467625414576       18.61488836749643       16.53489649189670
H            9.32999083126799       17.61432647921354       20.46737441231349
H            8.70383905534902       17.22452312011708       22.08453384772388
H           10.08123148725600       18.31440126087476       21.90967830886663
H           11.49754976766917       16.49465518202371       21.07340008130204
H            8.73542156899596       13.64079617045059       20.73353741918186
H            8.62344699602023       14.61107611422069       22.22770599198346
H            8.03248843319754       15.27574149620062       20.67953933958607
H            9.06553583857376       15.39019757084500       25.67821758222646
H           11.29782686019729       14.81116562786909       26.65554806459782
H           13.29351235625343       14.93472108236496       25.16626124975853
H           11.78484166489169       13.81913748544529       21.42009181411444
H           12.95803212712100       13.46286194354692       20.15235411423265
H           13.23939339127026       12.67031562463086       23.09855609684989
H           12.82867702315518       11.58015757462321       21.77051516143510
H           14.43000094231238       12.32887478938179       21.83883022281966
H           14.03934221707494       17.21544152986107       24.75227134413040
H           15.64081758251200       17.60936047879369       24.11414166287020
H           13.54358356536336       19.43739304931225       25.63494532585661
H           15.23423501806326       19.78131845748567       25.26592433434914
H           13.96816363636882       20.86828867222054       24.69299610824769
H           12.29219736313954       20.02954703550324       22.97712683011564
H           12.56016042436670       18.48382827069252       22.16421840782536
H           12.01250268724780       18.51497465222951       23.84098601760471
H           14.59870635763814       20.67175919618896       22.28003489609184
H           14.91783946235977       19.05741453742290       21.58040920529101
H           18.68461048176787       19.73475929636697       23.33511966814260
H           18.78432974838670       22.47364757043756       22.31381585269271
H           19.94329090611352       20.45466128078501       20.73040900149975
H           21.97691463332690       20.10198440047128       18.96159382184734
H           23.31969434288293       22.83837710344227       18.22291563670187
H           21.87850526479215       23.56333834094070       16.17777612363552
H           23.18794567136926       25.05757043074182       17.62492628868858
H           21.62692738996251       25.79959250121461       17.26272142774373
H           21.90164447279720       25.04317366858184       18.83599855174582
H           19.66159762084349       24.48561969856163       16.82693561308171
H           19.62946344605771       22.72802326178011       16.90328172180697
H           19.77036842559966       23.67777288805170       18.38729349566075
H           26.20826895887398       20.04803367375409       16.12648281321301
H           25.65898925390470       18.96813311511842       17.40786856205307
H           25.27865527313244       17.14728544732595       15.76610964523056
H           26.95161531094161       17.74906298117509       15.60412377724701
H           28.27031462717319       20.61686457071063       10.44079870446611
H           28.96298633368611       20.88921383356740        8.83806144073163
H           27.99509320235383       22.16338140466034        9.60129036278287
H           27.59228882089498       20.85832428018012        6.92690553317209
H           25.86039185073130       20.56346936435366        7.05383721001516
H           26.53750594567619       22.13194039977338        7.56185801679920
H           24.12673121201171       20.09120206110905        8.29956179155714
H           25.12564540874097       18.65308872838691        8.58755124964708
H           23.96292710281613       19.19028159005457        9.80398894428583
H           25.87418970951867       22.33837308153606       10.68355196203073
H           24.87989355509756       22.31426181273762        9.21687187297649
H           24.27105111076760       21.60260188231096       10.71552040445979
H           24.17124299661317       18.82328907007338       12.73802964860780
H           23.66386031590982       17.79888654941316       14.10510807194848
H           22.81569105212465       20.10393130748088       14.40744075083881
H           24.46449130291177       20.74775178666193       14.29526476853037
H           21.50352203298071       19.66768610964709       16.29028942821695
H           20.53895651957228       20.75347106571481       17.26945239282272
H           21.05012115967994       21.25974128359268       15.64621479416758
H           22.46297128446351       18.74444501709178       20.86032672757749
H           21.22871124967294       18.61587919195958       22.11049969377504
H           21.03542298188456       16.87427646858607       20.31051323615617
H           18.66707529230950       18.78965908409084       20.61420895979538
H           19.10186551973699       17.41178628419812       21.66838326936345
H           18.01777892503950       16.57383283314452       17.75082732242052
H           18.07662051259678       18.27706626841622       18.26674717088022
H           20.12407107608968       17.72310565757025       16.99296740207640
H           20.46220819827315       16.36090090577854       18.10111980072593
H           21.84589417367937       22.20876751912077       24.25867641030254
H           20.41077312404585       23.25237602499748       24.09850638272225
H           20.16681964088073       21.84890062962751       26.14299726061123
H           20.44885232284456       20.38753716446822       25.18458187418182
H           18.09949078136948       22.32506955225188       24.86244315454890
H           18.01384902595045       20.68066909270541       25.51785030240807
H           15.04981682653133       13.86026805895353       19.31529796921781
H           17.18438166929807       14.85668021024046       18.67987437926348
H           16.92156140681653       17.69301743344172       21.88377753588750
