151
 energy: -221.326678802012 gnorm: 0.004346718659 xtb: 6.7.1 (edcfbbe)
C            9.35421415933010       17.40877956960531       22.66358360300451
N            9.90111142636743       15.40623979904619       24.58260331520799
O            9.54973964685827       15.15311559522231       21.69127237981242
C           10.24868693036373       16.21119239377269       22.34669039092356
N           13.14381790457228       14.93129153287456       21.50432579848253
O           16.32765722172017       19.35503793573382       23.21387849252140
C            9.07844281033054       15.45365301144799       20.39555519591444
N           19.16982004211772       21.04822354338377       22.73824715075336
O           28.42068653869389       19.98358030726492       13.90333739243251
C           10.79401665506053       15.59629114034771       23.62238637467437
N           20.55656004213788       21.03743792183031       22.91453483673943
O           24.19320805665367       22.79637301176949       17.48850089112997
C           10.27923154151701       14.85888433387894       25.72356304841852
N           21.28467139929851       21.05976713942950       19.49645448704711
O           19.72570700475487       22.67950038345939       19.53880458005911
C           11.58134400816751       14.45529081991300       25.97354028361426
N           22.17291908003868       21.88461558600975       17.09836742093703
O           19.80806347591986       18.80128511439939       18.29834691362336
C           12.52078257890587       14.65019687407319       24.97788590725843
N           26.21727518283310       19.77788916869904       14.40841134616901
O           22.60420191598081       20.79204208897577       22.01534772720692
C           12.14222881467248       15.23642234014440       23.76971284355694
N           27.23467138636172       18.90801433756290        8.93487647486976
O           16.52389343272842       21.52736676313631       23.74738062265183
C           13.16704353774077       15.50434349408458       22.75609682291394
N           17.67686567466010       17.23867259936544       19.30984311611193
C           12.35602244702722       13.78279020189116       21.12994247112455
C           13.02566845094315       12.48490752674889       21.57958020748564
C           14.24959365189577       16.34916782881968       22.87654220329024
C           14.66453200311128       17.11351245132584       24.09321490817368
C           14.20462355557058       18.58684468114108       24.16716865796210
C           14.56549438015731       19.14001153349345       25.54849434138758
C           12.69749367390734       18.69508484770494       23.94465776265743
C           14.90004914211603       19.42438273713476       23.08433230700620
C           17.00125278044525       20.43092229333120       23.55000669625964
C           18.49298843970081       20.14783721057779       23.66847889291995
C           21.38365606883161       20.74150407638313       21.90075257014939
C           20.71740376328642       20.30697929445401       20.59108960933815
C           20.75470115008803       22.21313216960618       19.06773962299957
C           21.55123929496365       22.89613700868301       17.94384520476816
C           20.71941086309928       23.92176462109170       17.14550291392412
C           21.46745873878052       24.36346023117432       15.88705704683653
C           20.43671902658743       25.14785897391588       18.01241329664248
C           23.50808856015758       21.90575079517346       16.98474122919747
C           24.22574950960287       20.76579067890790       16.23358004224681
C           25.71662070287516       20.78709613676440       16.57537989087671
C           26.45609828728515       19.67879545326277       15.82922428745895
C           27.23765417739852       19.93598617425936       13.55095325576576
C           26.89174665591855       20.01334289098766       12.15595250432731
C           26.82931412854298       20.05688515011451       10.95403026359506
C           26.64582704018460       20.12624903380276        9.50699606876291
C           28.61804602955534       18.68380337709723        9.30375488804827
C           27.06452604363984       18.75160037546579        7.50562459497046
C           25.13088689760081       20.15814699620043        9.24241559336870
C           27.28941332498924       21.44089048346732        9.01810342788685
C           24.82699762537079       19.72531622331816       14.02905608469155
C           24.03705477402426       20.84366771376855       14.71777654715211
C           21.24958499863002       20.98940431224544       16.42718123951571
C           20.96120395500642       18.80373573459858       20.41136013605040
C           19.93539114427317       18.09788808461700       19.52098399906598
C           18.57044705486223       17.94122559428701       20.20930322258888
C           17.53878269447830       17.97614045568423       18.06473417013567
C           18.91944657327535       18.12526914821366       17.43006729116469
C           21.03941260965252       21.35807312828656       24.24671516961894
C           20.44869459812908       20.35335704606288       25.23516832454579
C           18.92386555586636       20.36378497349401       25.13032030683117
C           14.93804190263698       16.29742505030356       21.62787426784659
C           14.22950145067220       15.39008639499670       20.80704555884694
C           14.66923193854380       15.10691348433910       19.51828400400481
C           15.79630986422561       15.74651028645071       19.05876495616828
C           16.50850355352093       16.66944429525288       19.85124067452483
C           16.08272665998940       16.93193928691406       21.14136485629929
F           23.71355065300742       19.54299919402275       16.70176487899005
H            9.01058023012417       17.88275124104371       21.74847245724051
H            8.50171500428063       17.07146979076731       23.24515326839120
H            9.91638712331646       18.13378276500243       23.24332899867908
H           11.08342904736572       16.53402383217122       21.70277436322319
H            9.87939679690890       15.87043872709993       19.77427636368849
H            8.74557106906577       14.50530253102544       19.97829229130148
H            8.23734639383474       16.15131130002066       20.42081748257394
H            9.49995719166934       14.74178015333361       26.46422832409059
H           11.84925531005757       14.00412226199604       26.91519263085751
H           13.54619282937743       14.34088086536951       25.11951312692532
H           11.36571815822087       13.86403246763339       21.58230340325201
H           12.24256834211444       13.78991813252712       20.04404344264467
H           13.08886320485870       12.45256082098662       22.66436335244341
H           12.44543987840008       11.63273274331943       21.24000816620757
H           14.03042639704443       12.41636290311437       21.16999999140670
H           14.26936094171681       16.60983073961673       24.97658451340855
H           15.75502031512699       17.09837566256126       24.15115600046480
H           14.01579984722104       18.60941164182101       26.32163070709580
H           15.62984761452073       19.02470891843474       25.74437713995935
H           14.31946420968889       20.19812185277746       25.61411219709414
H           12.37016730548591       19.72620885062774       24.05403928948344
H           12.43689573925225       18.35080737150822       22.94722268141104
H           12.16845926905819       18.08312936622813       24.67049540896364
H           14.59477416938623       20.47222623709963       23.15296122506191
H           14.66361291025755       19.03203667023799       22.09351324139050
H           18.70005033628594       19.12133384402851       23.35051718977561
H           18.81298324808779       21.99761217789336       22.86448160631231
H           19.65436358703855       20.55204309020764       20.63490253633368
H           22.17313832509192       20.74446121810184       19.13784033833920
H           22.37396784720486       23.43953318764000       18.42961439618863
H           19.76609324238455       23.46225433058769       16.86964011793520
H           21.59394901460838       23.55139077539938       15.17779719159254
H           20.91420403446715       25.15985275330727       15.39743573863814
H           22.45270708865096       24.73990016765888       16.15444855174011
H           19.92372449726922       24.86103337738814       18.92529065704118
H           21.36818880286834       25.64624774921610       18.27453443099332
H           19.80983766547464       25.85036137462209       17.46923262668573
H           26.11383682957380       21.76623869841467       16.30987429936370
H           25.84259901699712       20.65476579546228       17.65038808033268
H           26.10864694789760       18.70147518155272       16.18434678475425
H           27.53144440040692       19.75877678681968       15.99713573035430
H           28.86295479704597       17.64219959514210        9.09506407819780
H           29.32301983046898       19.31880672241210        8.74574730728533
H           28.75497926175595       18.86285514452448       10.36857504149106
H           26.01944368573665       18.86181505056496        7.23494069968879
H           27.66835915230403       19.45829130951336        6.91625548670310
H           27.37978896908366       17.74227930896529        7.24350527644539
H           24.71120811086929       19.16903784271826        9.40159311018684
H           24.65983049248610       20.85699182462576        9.92847641719660
H           24.92164238350233       20.48298216674909        8.22752584907044
H           28.34294234791153       21.47469513831786        9.28517126401982
H           27.19058247064936       21.52422607445940        7.93927174486751
H           26.79064495105094       22.28732487801411        9.48195407007504
H           24.74864837269710       19.81890347457182       12.94552050740787
H           24.41660660941760       18.75740574367677       14.33739407033946
H           22.98655176823412       20.74513823840018       14.45415486173197
H           24.39562262599760       21.81960866416243       14.39027790884464
H           20.38628622843647       20.84001631493853       17.07138683366971
H           20.91357499216162       21.42728313068927       15.48612587900752
H           21.68950237625425       20.01621119284414       16.24583307901893
H           21.95720558784095       18.67330665817043       19.98584115264729
H           20.95033454547031       18.32007794706977       21.38822029292720
H           20.30999417155863       17.08310756231287       19.30033370018178
H           18.18283930832227       18.93693731461213       20.48123316662960
H           18.70187125660826       17.34393480642052       21.11138534107522
H           16.87489144356648       17.44368430235754       17.38685172000509
H           17.12347175975131       18.98129730701129       18.25299003645143
H           18.86973987274865       18.72503392849607       16.52061071071605
H           19.32280992000464       17.12974959402142       17.19690316550274
H           22.12794132272522       21.30881944949549       24.22095670593530
H           20.72743356231634       22.37629229314114       24.50134408438565
H           20.75271461989707       20.61540562520948       26.24713374161532
H           20.82994222243659       19.35842595949185       25.00360838562948
H           18.53076643000990       21.32516620048693       25.46897721361029
H           18.49576583459135       19.57735465790669       25.75220381224401
H           14.15184965852308       14.39934386331178       18.88881225712630
H           16.16243373808857       15.52046492424901       18.06989487038108
H           16.61206827468838       17.62272499093244       21.77358595054864
