151
 energy: -221.329388911246 gnorm: 0.008864020966 xtb: 6.7.1 (edcfbbe)
C           10.73773268291039       14.13860179267498       20.16491476612579
N           11.89261270126210       12.52833236531066       22.15142589813880
O           12.42884740033604       12.63697587067127       19.19889911247501
C           12.20801587671647       13.73340479542107       20.08421722078867
N           15.49731849614709       14.09035457299226       19.96764918304869
O           15.66987063223999       19.29034675251579       22.39884595788912
C           12.27623027513143       12.93946545543732       17.82972317759923
N           18.22286815886010       21.75858588674056       22.00019972357240
O           18.95149232244323       19.34774498660304       13.96052214608391
C           12.71860508331306       13.28078129158599       21.43996999100893
N           19.39895262473057       22.12459342854762       22.66587388793005
O           23.42942421741204       21.49084013762642       16.72495524083888
C           12.27068906702756       12.09588848316685       23.34155826111231
N           21.77798530668156       22.26260915624356       19.90730618081268
O           20.91077927417049       24.08979936748662       18.91268499426810
C           13.50080358329396       12.39901680054955       23.90328218978197
N           22.97205815819519       23.67615979825112       16.97401498071500
O           19.51287495085108       21.08325240262510       18.01354437805520
C           14.37092894528313       13.18159767068609       23.16734967305855
N           21.01316720873087       20.23897757599049       14.28871680977472
O           21.61756803123419       22.49041021436353       22.58667357009399
C           13.99388435417180       13.63392271479253       21.90302680829924
N           23.01406501828739       16.07122303692698       11.66652882533817
O           15.63490537198137       21.23055437084691       21.27247110274939
C           14.91440250493259       14.49131814901902       21.15020045328065
N           18.34361632767628       18.69639515581737       18.87723314351481
C           15.51798434629110       12.74103797815722       19.45961894391924
C           16.74058068947231       11.97680867848389       19.96658947651258
C           15.31936121108383       15.76513459521245       21.48092739407244
C           14.95944778202209       16.52941413090363       22.71553371562025
C           13.89112197430505       17.63899520441161       22.56360276740546
C           13.46902185659063       18.09505438344522       23.96274869657853
C           12.67681988343728       17.11023607234939       21.80136850891298
C           14.44567278153818       18.84719766270858       21.79564395488091
C           16.17238149414686       20.45410502760865       22.03023469667542
C           17.50842902228413       20.70470306074137       22.71446010414072
C           20.57758599268027       22.16842576936225       22.02264090361412
C           20.54195076127985       21.84595530133227       20.52694881642862
C           21.85487565454814       23.32863378190437       19.10216377933970
C           23.21342344146499       23.51151133815157       18.41166974506531
C           24.01750155120234       24.64747475097499       19.06552577783241
C           25.37364510191410       24.80093663140303       18.38089953943481
C           24.22124808981194       24.33034555157578       20.54725611708128
C           23.05206311275969       22.56130411821809       16.23693655508966
C           22.65581706412161       22.58270969494852       14.74704738478795
C           21.13763788117053       22.67058399800370       14.56841646946292
C           20.48523353291226       21.36814587523384       15.02111104191803
C           20.17811417407556       19.29363081358933       13.82681498272930
C           20.78480188877470       18.20429455545152       13.10651424998988
C           21.11520407644121       17.25102686319567       12.44854856895172
C           21.54564390910007       16.11783976949231       11.63311140099653
C           23.65145819169873       17.26506770718520       11.14775082157296
C           23.61375996071441       14.88802596472438       11.08661060137491
C           20.94841965249990       14.85773898226242       12.27984948021861
C           20.94422187808481       16.30904136380649       10.22472288091128
C           22.44675479814184       20.07328369878035       14.37109484417223
C           23.17934337978672       21.35887615967581       13.98782795652439
C           22.46637207218041       24.96697154041432       16.55233446051173
C           20.29612037220822       20.36319394166791       20.23235717388088
C           20.26975741366925       20.10625421180481       18.71390046140933
C           19.71642808502020       18.70428381078314       18.42121642015107
C           17.55565169678802       19.62964278139717       18.08913116899608
C           18.12361258827623       21.03057019740456       18.29395790332977
C           19.27198245945696       22.51597118781724       24.06203232160946
C           18.59494520376029       21.39922457169705       24.85348514154777
C           17.26149187420879       21.05060180092694       24.19549949604278
C           16.20645277315324       16.17729320328715       20.44274304162790
C           16.30412191675664       15.10045842715148       19.52492550318784
C           17.11919414457292       15.18692716768482       18.40204718163433
C           17.80606008532889       16.36184645853544       18.17483527215474
C           17.70869651840416       17.43714502890284       19.06780948329412
C           16.93918744389288       17.33409795148729       20.20876652650301
F           23.25258683338826       23.69719333964355       14.12145605914855
H           10.14693068889530       13.27540502128327       20.45530174097729
H           10.61869863764425       14.91944794913237       20.90905055478025
H           10.39090354333455       14.51349213853888       19.20642677460968
H           12.81155651751996       14.58927604977345       19.73948008486378
H           12.66257985466816       12.07696277979785       17.29098242695771
H           11.22800915107352       13.09157718178507       17.56152296942122
H           12.85328093035816       13.83131388941541       17.55905879334766
H           11.54543872218974       11.48489889224810       23.86052237630321
H           13.76710168253716       12.03297043159971       24.88144925556677
H           15.34668381810294       13.44034077547225       23.55152537499223
H           14.60205754548528       12.23522499789081       19.77152762555067
H           15.52506524070130       12.78420191826711       18.36624685857030
H           16.73564301704019       11.94317223456971       21.05542142796407
H           16.72554403581804       10.95907560481680       19.58479013754078
H           17.65590865292443       12.46582804003873       19.64015609524981
H           14.58305492158790       15.82213644691845       23.45546765850869
H           15.86451940699908       16.99209940864945       23.11302367094999
H           14.32934500267245       18.46307246141702       24.51593889858477
H           12.73301140888154       18.89286975576485       23.89681381108603
H           13.02794436504430       17.26888190918793       24.51484486174015
H           12.28619590988449       16.22463365015253       22.29577450445047
H           11.89308273916826       17.86218306916212       21.75912184205448
H           12.95232819561545       16.84217179343009       20.78420051787613
H           13.73042401230227       19.67519516244497       21.79947910414970
H           14.65372592956499       18.57970987982184       20.75486842169705
H           18.10842048240904       19.78947191040568       22.65547380694963
H           17.60689394093330       22.56703112500861       21.89057396904601
H           19.75410541427867       22.45650368318592       20.07279437761411
H           22.59545861750074       21.69936152023891       20.07736383849033
H           23.78932089612871       22.58594787707304       18.50821732941286
H           23.44701311294050       25.57659025940348       18.99138856540688
H           25.26910660300315       24.99356766056470       17.31600104971030
H           25.92506082847716       25.62363298171716       18.82873813752959
H           25.95471074926880       23.88902782443296       18.50283118999891
H           24.77549876197542       23.40209722227552       20.66800657327957
H           24.78822834554429       25.12862914943303       21.01826228128606
H           23.27278543189719       24.23155574925441       21.07095571626473
H           20.71609699891696       23.48565673535445       15.15407801658463
H           20.92966564253519       22.85137760243304       13.51130879215475
H           19.40722261974225       21.40213270653241       14.84685976246435
H           20.65047164645165       21.22919472111556       16.09492177502156
H           23.72121731684300       17.27185827869695       10.05012284101437
H           23.10232870068882       18.14701953622308       11.46884338000756
H           24.66299606965896       17.31808374290427       11.55194631281425
H           24.68576812777614       14.93454805784708       11.27657671594159
H           23.22443864143236       13.99315674019693       11.56174244839815
H           23.46588887396809       14.81350287166222        9.99839417397925
H           21.51335967304816       14.59712216291422       13.17269871984271
H           19.91615511406118       15.05531073320827       12.56440159425199
H           20.95952336250160       14.02527034577754       11.57927013250596
H           21.24727102284085       15.49004542385925        9.57747686433373
H           19.85938447991686       16.32089358268613       10.29015687507251
H           21.27244237651372       17.24897374025759        9.78953225390541
H           22.72074701760294       19.81435764840708       15.40064202607152
H           22.75076141454008       19.26204620311347       13.70837922174339
H           23.05108007575522       21.56762997724425       12.92368201869657
H           24.24245451004352       21.23259775437774       14.19455266426131
H           22.28962078199503       25.00233728243730       15.48582929178377
H           21.53764005819268       25.17344562512504       17.08751585804069
H           23.19437817724182       25.73775612430704       16.79786872693005
H           21.08802663010471       19.76024466199823       20.67600036035819
H           19.33782205424398       20.06212665105407       20.64749213611139
H           21.27883882313953       20.20640649736934       18.29639386336004
H           20.28260160514652       17.95314301746593       18.97423678080652
H           19.80493304991985       18.50304587988689       17.33958517399362
H           17.57806008103601       19.36943075258359       17.01497735037545
H           16.52021788614045       19.60715452051595       18.43358181866327
H           17.92465141209181       21.35187855539319       19.32378078207112
H           17.66577128911280       21.74026824497235       17.60261611536387
H           20.27617315282248       22.72186833752677       24.43180777924045
H           18.67378472200143       23.43238935985790       24.11529065759260
H           18.43653649289108       21.72626626411463       25.88047509477365
H           19.24196029001264       20.52055620040717       24.86386131878177
H           16.58014348100451       21.90332599114897       24.25647800387508
H           16.79752646938750       20.19936940180470       24.69112577896741
H           17.20956609149625       14.36474140086383       17.70785151044580
H           18.42446390399728       16.45414278661582       17.29413484410366
H           16.93063455937675       18.15953013837552       20.89756607492330
