151
 energy: -221.333213869550 gnorm: 0.008426487553 xtb: 6.7.1 (edcfbbe)
C           11.64971392706830       15.30745290743813       24.79891987159064
N           12.30513563161521       13.04884831024720       23.25471402382183
O           10.60563901735001       15.38711664648052       22.57747136709597
C           11.84339922989489       15.40956141826507       23.28417166553342
N           13.24522006832347       16.41461409496634       20.49573710779952
O           18.03314760414242       18.20893014439798       23.27969719995606
C            9.81873789802518       16.54813429511611       22.73089489994360
N           20.23359861280132       20.79912026810001       22.66920715507374
O           21.94727505791376       17.22396642199234       13.74599355020437
C           12.65090532724046       14.23252741786670       22.77061619115816
N           21.57030603528479       21.01685878431563       22.32178885565322
O           22.67896835286365       22.29348570622465       16.53169510155519
C           12.95894845134986       11.96907830257068       22.86513182976082
N           21.13618480760157       22.51226541993458       19.07912967553911
O           19.26254568858490       23.77412947821026       18.96688581784963
C           14.01380597182767       12.00768900804341       21.96717538992062
N           20.79236175285962       23.47075910664093       16.19660488249105
O           18.79435049637602       20.86951334049589       17.75967625086270
C           14.38400718054681       13.23935002159735       21.45668423330290
N           22.06437231871763       19.37746365312519       13.04009600169246
O           23.05536759914941       21.57209448628610       20.72256120682429
C           13.69691531414193       14.38805637467012       21.84721079380580
N           26.94049968430184       16.22506807255694       13.40617656842342
O           18.06788555210735       20.16508630856955       24.37593438222774
C           14.09669948342709       15.68736024225027       21.29446555631858
N           16.44274971423085       20.80290616163787       19.40321919566560
C           12.05958667709428       15.90252319238338       19.85470388710967
C           12.40597940084105       15.17578120157496       18.55572799990207
C           15.29140018281012       16.35678104081629       21.45654312543592
C           16.47506329010103       15.89849586629345       22.24941599164428
C           16.51343469432444       16.37322699415848       23.72020894499840
C           17.66321299845039       15.66437774505045       24.44062160419477
C           15.20031287229179       16.05377219839795       24.43070408129758
C           16.72669932575224       17.88961588053238       23.78503780707321
C           18.59155449079069       19.33225639551399       23.66717252205330
C           20.01974003502885       19.44266170425343       23.16191209157515
C           21.89471833420412       21.40589238700838       21.07972992947239
C           20.71163542372626       21.63333382277115       20.13921299596150
C           20.38843720155529       23.49634784391087       18.57379064698440
C           21.07936184046689       24.22931202555628       17.41420328720912
C           20.68779333730793       25.70943163728478       17.31075859945767
C           21.43315696675487       26.37335838007895       16.15504360741285
C           21.03038335094454       26.41637937849330       18.62089888842839
C           21.69157458252338       22.55063257154266       15.83600562369259
C           21.53500066810288       21.79281369630852       14.50899160105327
C           20.73010378451448       20.50598895972209       14.72413790587566
C           20.70778018968319       19.66916073669831       13.44282772104501
C           22.60712853914670       18.18010720267423       13.33211900171528
C           24.02506144235224       18.05972013455877       13.12228307881845
C           25.19904556362725       17.79393899771320       13.08340116249409
C           26.64450020499926       17.60528526595342       13.00441848185742
C           26.42888159738910       15.86852778644820       14.71457329394443
C           28.32654562860395       15.82651845593470       13.27598390340692
C           27.04138612251288       17.82891657427841       11.53515874478180
C           27.29773086983175       18.68807838022394       13.89073322427708
C           22.82985586410771       20.55950503083277       12.72181014449526
C           22.92439716013328       21.47518583097764       13.94288189240782
C           19.46315533692138       23.63262624165784       15.64580381142656
C           20.23661180329169       20.27075390266256       19.60077159876517
C           18.81415512363162       20.24532594467869       19.04037679101187
C           17.77454405404820       20.90892681881197       19.96096195173443
C           16.44642059841078       21.45265363162580       18.10647029672301
C           17.49678571373393       20.80508930151335       17.19507712249994
C           22.57360809764386       20.74274378890762       23.33843974650451
C           22.41662667291025       19.30868629533233       23.84069632231051
C           20.98052265962602       19.08309596893454       24.30931542528586
C           15.18309809434072       17.56344266904316       20.69817332218161
C           13.89741144623027       17.55583211697411       20.11263405172042
C           13.47302117498356       18.61745549511526       19.32380062337933
C           14.34054200345627       19.65913389316302       19.11086634953555
C           15.65472283535746       19.67450062899172       19.63158047763315
C           16.06498884778071       18.61622771334880       20.43317085722383
F           20.87818373375798       22.59545548508833       13.56768684739232
H           12.60630310306802       15.12699160657237       25.27936603507618
H           11.22566176300301       16.22520559877006       25.19449111519282
H           10.98533479267998       14.47500840080549       25.01079295416762
H           12.36882200856175       16.34575550338667       23.03558402041369
H           10.40542074085453       17.44668406925951       22.51196596458377
H            9.01085823995098       16.45109431208241       22.01061163803478
H            9.40194354418774       16.62520300490789       23.73783601336917
H           12.61499624769088       11.03938442802909       23.29516546792197
H           14.52394765210195       11.10351420387192       21.67405910472941
H           15.19372067133713       13.31817498671844       20.74485031691335
H           11.55008093001047       15.22057966889577       20.53819676842718
H           11.39443604767116       16.74370710210651       19.64819404276860
H           11.50038991031565       14.80452706423216       18.08797858688522
H           12.91161705482008       15.84796310265744       17.86723167299287
H           13.06144956948134       14.33255305483964       18.76188408857852
H           16.49503224428067       14.80671670457190       22.25786661755348
H           17.38276319595212       16.25389098779359       21.75822126572948
H           17.49069115187786       14.59151174440963       24.45093731273120
H           18.60707370011292       15.86023689977826       23.94180587574394
H           17.73400086997411       16.00975335352589       25.46830649115577
H           14.94671170864011       15.00792980777359       24.28955455209664
H           15.28580069524593       16.25028533759714       25.49496518353058
H           14.39447632094658       16.66001873282672       24.03155484444123
H           16.65865931623200       18.25482192221978       24.81492373997115
H           15.98443256923724       18.41592846686277       23.17955611839032
H           20.15691334112103       18.73888791036439       22.33507452823167
H           19.93747410068410       21.45733906556775       23.39110488914611
H           19.91235121565392       22.13035992835359       20.69044077305745
H           22.03991751721244       22.30672078914359       18.66757640484753
H           22.16202993111900       24.16723093428173       17.56772643916167
H           19.60934163979543       25.78624417809887       17.15703566201808
H           21.09948255630328       27.40072839134641       16.04037223097759
H           22.50211510870427       26.37717141437164       16.35732794940762
H           21.26906847500302       25.84964576713875       15.21747292128845
H           20.77460220608476       27.46833819086028       18.54540023393098
H           20.47243584921347       25.98589068125924       19.44795793939239
H           22.09255346796510       26.32916546262544       18.83674315012527
H           21.21294973027390       19.94337062575509       15.52532867606057
H           19.71356904661990       20.73291638229470       15.04228308639611
H           20.21201014411647       20.22295817663550       12.64053792739081
H           20.18884612888215       18.72432143882957       13.61514973239193
H           27.01410482047997       16.29851616193879       15.54189003762257
H           25.39438978085682       16.19524028219823       14.80757306765543
H           26.45511154278070       14.78299979625726       14.80879643017727
H           28.99931779883182       16.35490851865617       13.96762219853459
H           28.38654074850262       14.76129284056627       13.49651554934836
H           28.66890584030621       15.97883508136081       12.25662862386899
H           26.56266812788770       18.73013375442971       11.16287273754856
H           28.11629870168130       17.94730116606350       11.44022269771240
H           26.71202667633924       16.98422168566615       10.93762854278783
H           27.01777725342212       19.67212943206255       13.53502325721967
H           26.96934891503191       18.59160417739306       14.91851931426031
H           28.37566279495682       18.60039540607414       13.85239668664840
H           23.82801780052474       20.26991113759643       12.39358996939078
H           22.31856348997148       21.08458641186436       11.90889938592595
H           23.41446764487434       22.41029021740147       13.66969693389787
H           23.50484527814826       21.00183225425538       14.73456268921302
H           19.41124926847108       24.50659229617521       14.99691938118164
H           19.16845212247023       22.75997877906818       15.07833326134479
H           18.76857714067593       23.75554788574690       16.47525585202375
H           20.92586207685870       19.95818027862161       18.81307418466784
H           20.28086574347237       19.54376127927837       20.40706530184390
H           18.52820505522718       19.18756560364406       18.89706554124987
H           17.99590820243000       21.97887595060659       20.01363052980333
H           17.81669245081645       20.49021185054703       20.96464189177165
H           15.47293661902420       21.39816822381082       17.62579836039568
H           16.71046341010178       22.50355063557031       18.26380377785703
H           17.55138363752267       21.32890307029767       16.24065881660037
H           17.22701042580821       19.75107046249462       17.02305306337075
H           23.54926784379502       20.90277773215591       22.87860624824352
H           22.43811824065807       21.45086361772707       24.16262322717172
H           23.11133764684203       19.13292226424864       24.66130529393938
H           22.65403274289773       18.61462056936962       23.03147542861309
H           20.75676031871993       19.72141818246812       25.16789815429199
H           20.82954376210484       18.04498773803832       24.60322666560709
H           12.48347898959506       18.64220287580726       18.89722045751636
H           13.99125303107079       20.50255496515558       18.53853224525307
H           17.05579993602212       18.58114140815862       20.85538770073382
