151
 energy: -221.333635650506 gnorm: 0.003979450389 xtb: 6.7.1 (edcfbbe)
C           11.04839734779478       15.52776594802089       24.78669739133116
N           11.96576317113542       13.18747171425636       23.57588657807568
O           10.41283231211232       15.53761796581899       22.41944088853923
C           11.51153638005314       15.54537336262566       23.33026822590842
N           13.18436975078529       16.23377057954163       20.56150865919284
O           17.69049722487723       18.43723900002497       23.55370349953852
C            9.80417614853732       16.79725589732761       22.23672276803734
N           20.03567755182852       20.87426392081550       22.82114817569610
O           22.68924799505458       17.03360846013381       14.16870067065179
C           12.35798212798145       14.32454658730257       23.02085498928451
N           21.39801176109106       21.00679797666089       22.53297849334717
O           22.99778230567604       22.38626671533840       16.59744955778515
C           12.66412730563419       12.08611773695582       23.36570824749813
N           21.15806335020651       22.29175646663233       19.19734559440925
O           19.35698782993776       23.64994683837744       19.12657254467868
C           13.81534981494406       12.05597396807625       22.59451064006409
N           20.96473998830598       23.32915266687754       16.39408407191913
O           18.91694415739405       20.56076347611438       17.79251892149039
C           14.22978643523223       13.23651560346415       22.00517056428152
N           22.39096012130524       19.15584724207161       13.42328833478706
O           22.98527876606623       21.36986314337480       20.97489454577572
C           13.49405370487951       14.40477861012447       22.20116820599516
N           27.45366607845972       16.55444111013959       12.20181269148467
O           17.74843773828433       20.50958642675618       24.41094850977155
C           13.93433258763603       15.64616032269813       21.55367574093342
N           16.46925010101626       20.51480013879207       19.28849398461763
C           12.12517063475111       15.58749115156427       19.82752455243045
C           12.69032123151372       14.67496097487857       18.74000503089987
C           15.08668776327603       16.36787502075275       21.77894896305125
C           16.15359644279494       16.03142735171764       22.77182771444806
C           16.05417377273225       16.74435246968407       24.14045979006151
C           17.08593632079451       16.12745904638344       25.08874551393879
C           14.65741405673521       16.59392909388735       24.73919058360588
C           16.33468047543701       18.24284990446940       23.98506992781679
C           18.27600914767100       19.57776167156560       23.84175964645148
C           19.73346720824122       19.57651049668471       23.41484506065001
C           21.80293343145769       21.26519576604069       21.28049768811843
C           20.67968317804832       21.44032929616410       20.25798638864593
C           20.47848257677185       23.34586158601279       18.73816701062316
C           21.21454058646625       24.09265436177132       17.61854980910697
C           20.82134802721423       25.57134792069594       17.50731183360160
C           21.60203540251212       26.24275317533885       16.38008154897440
C           21.11111904798537       26.27005291817193       18.83539823002785
C           21.93489050634309       22.50809275540367       15.98103429487585
C           21.74086413618985       21.62546317764613       14.74158575923427
C           21.19005437997291       20.27506212525919       15.21785413359416
C           21.09629535656282       19.29119381069329       14.05173161161557
C           23.11465415858373       18.03220241273775       13.58361788340021
C           24.42554954402748       18.04426406636366       12.98901464637045
C           25.53708371917159       17.90231016256849       12.54751404000519
C           26.87477711307189       17.88098651873833       11.96132598457702
C           27.53757695153041       16.19740006128411       13.60325089787144
C           28.70936682310916       16.29248237678293       11.52925761106434
C           26.69531537609087       18.12230233883662       10.45313157682547
C           27.66898888561818       19.05296057337633       12.57972337860539
C           22.90840758395053       20.39270171732096       12.88867237392041
C           23.06956769715518       21.42688286229501       14.00635313732553
C           19.61822407896196       23.41147438417431       15.86784697577136
C           20.25092321446523       20.05522017692259       19.74271618951203
C           18.86424169626923       19.99456362924549       19.09827719341972
C           17.76149385644475       20.68857364111157       19.91847001653061
C           16.53907419523853       21.09697312456783       17.96149646124377
C           17.66075852981270       20.43900842760378       17.14906525647728
C           22.33168501497745       20.78137754269095       23.62548479403486
C           22.08243171804646       19.40021759437859       24.22921809081898
C           20.61586325604611       19.28215825524732       24.64152021178196
C           15.06716946747794       17.45863582495421       20.85349702122360
C           13.86938829901077       17.33267598008502       20.11365019067543
C           13.54593423086394       18.25992282875379       19.13331493773795
C           14.42400757806095       19.28728234230514       18.88714037300818
C           15.65891346136170       19.41480622961340       19.56337885188297
C           15.96723847901299       18.48519693529360       20.55230208934228
F           20.85582390629348       22.20165355040729       13.82418913197233
H           11.91099267407056       15.49189384356389       25.44439375051656
H           10.46978782728457       16.41881331571792       25.01297332791788
H           10.43725734508450       14.64592631067842       24.95156319365230
H           12.11264659399306       16.44758515297713       23.13573539582158
H           10.54277043213890       17.54258577183494       21.92246356450882
H            9.06464997969577       16.66013547670885       21.45186515916701
H            9.30859753487769       17.14351112804556       23.14625399586347
H           12.28062620148034       11.19608825720344       23.84531753228124
H           14.36510696379952       11.13933363302750       22.45410233898476
H           15.11212187761556       13.26307896995208       21.38173648840800
H           11.51022071107391       15.00954230247434       20.52063650581121
H           11.50143752690597       16.36307299209775       19.37924159354166
H           11.88053000018684       14.21693433962337       18.18037436193227
H           13.31532471133150       15.24493069536270       18.05602821504594
H           13.29336379226445       13.88814001821397       19.18726868201539
H           16.12136202337870       14.95706143492128       22.96318880467161
H           17.12642409027499       16.27225996133689       22.33882362993822
H           16.85256476831599       15.08097629336692       25.26479047801543
H           18.08319011904138       16.19387750906089       24.66144428984558
H           17.08204170332262       16.64654480273320       26.04477516305793
H           14.36605782342790       15.54711800325597       24.75285818865375
H           14.63623538822338       16.97546274267229       25.75689514118430
H           13.93213624222507       17.14827745634324       24.15072097104438
H           16.19624215570296       18.77070299132376       24.93381190456887
H           15.66973267659167       18.68743347565838       23.23915452209405
H           19.88232863705644       18.80056537899370       22.65761274833153
H           19.73596943846578       21.60665754736351       23.46726472149047
H           19.84202532468477       21.94740858456615       20.73853434914485
H           22.08947664024299       22.09355677645724       18.85197499052413
H           22.29156865646933       24.02977229911425       17.80569449838348
H           19.74925540075400       25.64640708303406       17.31124466071189
H           21.27472008574881       27.27170559692663       16.26341386195691
H           22.66535959822615       26.24183405590472       16.61021593399996
H           21.45949666327622       25.72543066679788       15.43476323232778
H           20.88977633038681       27.33062291722517       18.75219209721662
H           20.49607751057140       25.85168111248095       19.62925093176064
H           22.15845383387601       26.15376643156901       19.11027616858010
H           21.88746444046924       19.89205409618597       15.96394277241843
H           20.22046153461989       20.39848613000991       15.69765320502677
H           20.38111939340940       19.65587464744756       13.30850058680444
H           20.78674851208415       18.30783081545948       14.40876748399915
H           28.35197285367610       16.71421921638579       14.13502401313284
H           26.59386834438941       16.42397737229443       14.09724949921136
H           27.71389964491267       15.12441269788679       13.67449303103947
H           29.53711295329624       16.92353174160955       11.88582146904636
H           28.97476280528746       15.25313107759154       11.71716596306723
H           28.59520501497535       16.42223964217595       10.45743723230330
H           26.01047825484721       18.95158020160512       10.29794523286781
H           27.64510693425154       18.36944008332678        9.98911417438902
H           26.27943448003302       17.23445547885891        9.98624041664973
H           27.18938218967073       19.99360135768947       12.32425376342647
H           27.70261256635947       18.96729403712633       13.66299282603411
H           28.68350270823469       19.06092941563520       12.19010279425647
H           23.86830361568799       20.20624275926122       12.40813913005841
H           22.19802010915608       20.76986530237133       12.14634058377836
H           23.39155789087905       22.37976545197720       13.58593764146324
H           23.81270829281851       21.09950633306303       14.73334068851585
H           19.53719892117115       24.21081837138245       15.13062112728014
H           19.31854442804811       22.47648736271481       15.40856816140649
H           18.94320114882167       23.61216680045850       16.69738055260214
H           20.98702745379497       19.71766458929818       19.01013378909983
H           20.25347010875360       19.35805286476050       20.57815032324139
H           18.59161375926811       18.92864312346119       18.98733215028926
H           17.95883997618255       21.76550464802131       19.92251097058065
H           17.75837459114026       20.33233072760149       20.94592703536091
H           15.60245790642924       20.99420265199113       17.42301251007695
H           16.76505067250676       22.16197304554677       18.08037344852286
H           17.76344568463569       20.92340861483749       16.17759061380320
H           17.42852245914422       19.37186068916246       17.00303441715761
H           23.33688335363453       20.86858363805607       23.21366473869983
H           22.17958851545692       21.55940290696646       24.38058757793400
H           22.73099766327704       19.25657998122646       25.09181703657973
H           22.31805400677421       18.63571026707394       23.48699454259319
H           20.38436678101423       20.01022462762464       25.42290661198361
H           20.39944453019276       18.28466846501761       25.02240360977977
H           12.62426866795359       18.19611209756857       18.57529009080928
H           14.13737767506972       20.02171664564149       18.15292709428836
H           16.89934830128437       18.53034718428462       21.09205479508184
