151
 energy: -221.333220089271 gnorm: 0.003738068092 xtb: 6.7.1 (edcfbbe)
C           10.87722616597277       15.93386490560293       24.70887988573692
N           11.78275213531406       13.44133262343926       23.82292852253470
O           10.36664727962663       15.67313329309104       22.32660798543341
C           11.41610887579898       15.76708667594912       23.28946755600389
N           13.21488826997778       16.13988099324060       20.60618944774305
O           17.72419432050519       18.41600978267596       23.60939936032842
C            9.77749988698755       16.90697485572054       21.98052138299359
N           20.16257025143815       20.72866814110252       22.87338132642807
O           22.78055592169077       17.17987561765660       13.53250499081555
C           12.23921659462678       14.49707198366745       23.16829775364665
N           21.50845957064576       20.81487587682093       22.50443761541800
O           22.91787467874736       22.35920513014171       16.63913757407576
C           12.45906155626312       12.30632402114527       23.77808332045113
N           21.08500720913327       22.19014387367355       19.21583896361346
O           19.22277357821786       23.46627112208250       19.17682635769000
C           13.64964422420063       12.16229902139811       23.08509173643204
N           20.84101208876263       23.19133881295255       16.39501421946833
O           18.85520440631996       20.45031299899667       17.84730651934513
C           14.13022555462778       13.25658653115622       22.38737330472916
N           22.55065095364116       19.39297244581749       13.09088021841295
O           23.01218910543535       21.19545478220981       20.86857846797890
C           13.41954039115607       14.45457184015749       22.40674398437197
N           27.57919759085764       16.67337608786017       11.99508688777664
O           17.96859680869879       20.41680025140622       24.59596304023844
C           13.91961557974203       15.61699809647459       21.66545500868059
N           16.43407236652467       20.48372671501595       19.38198259255458
C           12.18073486745529       15.45485325715131       19.87280623742161
C           12.77603405136520       14.51954636412663       18.82110770664772
C           15.05998621630068       16.35588792281318       21.89901242418754
C           16.10195161798054       16.05367144508063       22.93003409894120
C           16.00153780755685       16.82577090699996       24.26486762137880
C           16.97043017080525       16.19107081487704       25.26762342379015
C           14.58092944903819       16.77018625197085       24.82458709456018
C           16.36740167241894       18.30102681177592       24.06935168282029
C           18.40481873640180       19.49025782532934       23.94725183907023
C           19.84000498568916       19.42723678394161       23.45161490995861
C           21.84769038163022       21.10712352047132       21.23944734433366
C           20.66920467464762       21.31983429892652       20.28811527661814
C           20.34233065953848       23.20181225958204       18.75760184216591
C           21.01681102231701       23.97667652060333       17.61592543124785
C           20.50017744857453       25.41626116568458       17.47548765151694
C           21.20316348868483       26.12074903027217       16.31705002655370
C           20.74949255526975       26.17485930562971       18.77818012190336
C           21.87486564307235       22.45136240867457       15.98590990732944
C           21.78434824916075       21.66847199570619       14.66725273173109
C           21.23265069619104       20.26473205909848       14.93938122059190
C           21.21674559661263       19.45231104995726       13.64375290123179
C           23.25297043960670       18.24683099211829       13.13253083037948
C           24.60783656997458       18.30955748448467       12.65084554176462
C           25.75332366936171       18.13920829965677       12.31870270228948
C           27.15234230870820       18.07516345306693       11.90547081175498
C           27.38817535639242       16.07866555436847       13.30248186170683
C           28.91173332962050       16.39734680142992       11.50019979680964
C           27.21311603506035       18.55619893734578       10.44595863054287
C           27.94564836294460       19.04803612414664       12.80502316031710
C           23.11086274386497       20.68291790960093       12.76693590837942
C           23.16653160971786       21.57218198870644       14.01248100255172
C           19.50316485238363       23.17825699565770       15.84149527206413
C           20.20938194517691       19.94286238873801       19.77684448938093
C           18.80996711084951       19.90550361740346       19.16236576848242
C           17.73849701400746       20.63169537594564       19.99709948724606
C           16.51060726895239       21.07571235240422       18.05792744560139
C           17.58349728298282       20.36251213003466       17.22794838909644
C           22.49203154526894       20.53657741436296       23.53962264610163
C           22.22384947595724       19.15630447495612       24.13924960985273
C           20.77559365317816       19.07237864066347       24.62098700037197
C           15.06691109545910       17.40200321524441       20.92458792218514
C           13.90564550052671       17.22500101140077       20.13793718561978
C           13.61063288621596       18.10727502858905       19.10851510734708
C           14.46715290292658       19.15647397724761       18.87757980274284
C           15.65578574030791       19.34815043018404       19.61772698910692
C           15.94981390889078       18.44591408770754       20.63570712136751
F           20.95120999749081       22.33103682048804       13.75759578975074
H           11.70238770452797       15.95145900748441       25.41384102680636
H           10.32007758645629       16.86249950308071       24.79700467798353
H           10.22684764832109       15.09632590488176       24.93998968181823
H           12.05185752191629       16.62688636859903       23.02495714465683
H           10.54049433435596       17.62715163211807       21.66325847612291
H            9.10747547654944       16.69330337628158       21.15110133516664
H            9.20539945169863       17.33145850706001       22.80888164166628
H           12.02207921696953       11.48556195810940       24.32995254187395
H           14.17984192299442       11.22378164361777       23.08558983399058
H           15.04469813464545       13.18858096059440       21.81582562960502
H           11.56389486883707       14.88779596500475       20.57266336424249
H           11.54962006948337       16.20533257077663       19.39177890719109
H           13.39623998986779       15.07933876463660       18.12451816430553
H           13.39021642314468       13.75960480964306       19.29901170982785
H           11.98009590280423       14.02823074033649       18.26989090637412
H           16.04339151142581       14.99034223339016       23.17110954937934
H           17.08686509456188       16.25131067499664       22.50106995087087
H           16.64287322531410       15.18449492126452       25.51641384104794
H           17.97170668195077       16.13742948492696       24.85033954786875
H           17.00686761720660       16.77561130917702       26.18465841746532
H           14.24228455319791       15.73903454453128       24.88121673758229
H           14.54816647710817       17.20361960494867       25.82103867537784
H           13.89856483749493       17.32364396610195       24.18573743049093
H           16.27663959893061       18.85487279102858       25.00949292641807
H           15.71440931410761       18.76625551899964       23.32538277365379
H           19.91539046990409       18.66541266834243       22.66975087880454
H           19.93745016566289       21.45045053251484       23.56104254589001
H           19.86223324180057       21.81508824571413       20.83009947595884
H           22.00775997296908       22.01898135517705       18.83387446779471
H           22.09436398801232       24.00631988269633       17.81098400776826
H           19.42269548629901       25.39380922291166       17.29683915159123
H           20.79795191617237       27.12059108847812       16.19070551622524
H           22.26893837174455       26.20314129603145       16.52166305383954
H           21.07954894661370       25.57817416019192       15.38357215600655
H           20.44433722714626       27.21121547098872       18.66550584630797
H           20.17781331880739       25.73488106264264       19.59091291658444
H           21.80477473101073       26.14964291109050       19.04021555386939
H           21.89377602360238       19.79011688679554       15.66653234273335
H           20.23409064804138       20.31034886870450       15.37313552610388
H           20.55386829896345       19.92787243251761       12.91465861628459
H           20.88249714380429       18.43144843516914       13.83462213190954
H           28.13952713376642       16.40156642161408       14.03983107641007
H           26.39622408683738       16.32385892550099       13.67869139257274
H           27.45689611254674       14.99551336347839       13.19963701589384
H           29.70754214346105       16.85058168990430       12.11067587049093
H           29.05265458795484       15.31701948530967       11.51524060575053
H           29.01030386572490       16.73649289101069       10.47336340727510
H           26.60770295318505       19.45174641780023       10.33266178410396
H           28.23414453277306       18.79417237486996       10.16227113554521
H           26.82226516448360       17.78433076888070        9.78955253946518
H           27.58940856742263       20.06261688696490       12.64968643417584
H           27.81671533915715       18.79436789003020       13.85452045087331
H           29.00247779337436       19.00685863099394       12.55479881704683
H           24.11219340215730       20.54705442381563       12.35794635506732
H           22.47384622048907       21.15809191633901       12.01384128934495
H           23.49843704151106       22.57310932821353       13.73473965509478
H           23.86216676431630       21.17097515885207       14.74884946358350
H           18.79736390901158       23.26940828902082       16.66520186158231
H           19.35831289898277       24.00470141921096       15.14480028611302
H           19.30531065349829       22.24658383214040       15.32497121682784
H           20.92439200302416       19.59795171664651       19.02661563620832
H           20.22180613942438       19.24293058811386       20.60995892122673
H           18.50811182084604       18.84487854172286       19.07293017789710
H           17.95855462495149       21.70314557718901       19.99900122247280
H           17.74175473287277       20.27562148168286       21.02450593015149
H           15.55728582247788       21.04074163696141       17.54017083598321
H           16.80026409231912       22.12316403447916       18.18836637602468
H           17.68667285516121       20.82188766588565       16.24514675475945
H           17.30723543833190       19.30254069281008       17.11014253440539
H           23.47621024088454       20.59057043376199       23.07478139261471
H           22.41291442289892       21.30828454691052       24.31278303766382
H           22.90621201394602       18.98394028043655       24.97016654739932
H           22.40384996422152       18.39299966127107       23.38022734857696
H           20.60605931606937       19.78389916469288       25.43292122828358
H           20.54933109906632       18.07094977612555       24.98588043226232
H           12.72325311551602       17.99203143650073       18.50474501396285
H           14.19673785233960       19.85357870319021       18.10229246799150
H           16.85313219911303       18.52792768201855       21.21722561570116
