151
 energy: -221.336619485292 gnorm: 0.005658324913 xtb: 6.7.1 (edcfbbe)
C           27.94685166114161       -1.75361847171351       18.45141672328763
N           26.31534770417092       -0.05414428022281       16.91891423189453
O           26.29133165095519       -3.05649586231478       17.19957636059914
C           26.47074787271723       -2.07990242450065       18.22494125969081
N           23.23317947077878       -2.62371472634078       18.87269378543552
O           24.08825171849647       -0.95148682018430       24.28602220692017
C           26.49438468476911       -4.38474164696162       17.62710421699141
N           22.75315187658611       -2.26388144248095       27.28993818591096
O           19.35770313704324       -7.98969904237372       22.88834570708561
C           25.71127870481730       -0.83612523058400       17.80104196032599
N           22.01411021036802       -1.77908147711428       28.37400055393188
O           16.60806672998156       -5.13651600552377       27.13530228668629
C           25.71657012987322        1.05251653728417       16.51670012548739
N           18.97373196043014       -3.79344163212526       28.29233892921843
O           19.87876418347983       -5.20805120756161       29.79774491033644
C           24.48009562091344        1.46214520339122       16.99083615655760
N           17.25877958748064       -6.38841022326694       28.88180168683252
O           19.99268124476741       -5.47870218047037       25.96485806920841
C           23.83909025727948        0.65086986576949       17.90936547195896
N           17.44090910393501       -8.44036781306093       24.03063434139437
O           20.10352701067390       -1.76485198521590       29.55360446023109
C           24.44505012553551       -0.53405935280448       18.32319449510956
N           16.93146908352409       -4.95462392058849       19.35848487833927
O           24.87881698024636       -2.65080540143195       25.51874565979336
C           23.73629926311483       -1.40384294989865       19.27036682626263
N           21.12562246933627       -4.28912917616637       23.70030294984659
C           23.15220554844255       -3.09432163402208       17.51191994147821
C           21.87283348278440       -2.60962387475435       16.83310780914506
C           23.43945140217659       -1.17155804388156       20.59408615508417
C           23.76187211572567        0.03282589389208       21.42023570967590
C           25.06344304017277       -0.04206986976858       22.25154064957109
C           25.22646021614116        1.26902759262648       23.02558407904614
C           26.26973210632155       -0.24477500557733       21.33711258578394
C           25.02958595251011       -1.21788448749976       23.23666485934924
C           24.13660054686408       -1.70532116893398       25.36400298284775
C           23.20527698596339       -1.17017270636672       26.43667014154650
C           20.76861016883802       -2.21050605494970       28.62546084794132
C           20.24228235881515       -3.35636451953629       27.75170614415999
C           18.89639752745508       -4.69622915762417       29.27249990366602
C           17.46435155588892       -5.13116689111896       29.61746837510503
C           17.24520446603132       -5.19270946070863       31.13125609737380
C           15.84883093978708       -5.70629674046732       31.47520963471261
C           17.42930983143788       -3.77995580740027       31.68981225818239
C           16.87992495632253       -6.24578548135304       27.60495846678744
C           16.77504599929709       -7.46979625513821       26.66797376855892
C           18.16962557571479       -7.99817348592256       26.31649483677187
C           18.13109268003053       -9.00717229928716       25.16498942296636
C           18.13240477402234       -7.88306358758455       23.01847441818950
C           17.34661967500102       -7.16349647829328       22.05279192427918
C           16.75991101627911       -6.51514704648797       21.22396203492181
C           16.03244135400974       -5.71894564230618       20.23656642985380
C           17.73477698195082       -5.77061980227229       18.46699700193746
C           17.78147476951471       -4.01754725835440       20.06956026184956
C           15.15315655002735       -6.67375705198665       19.41162491688912
C           15.10472671528910       -4.75300082590799       20.99705950163268
C           16.06039464692034       -8.13315761394173       24.32632214239536
C           16.00198686238419       -7.05814048786468       25.41042704568349
C           17.82163432680277       -7.59005943997033       29.46203044334183
C           20.09963397029157       -3.03835253638965       26.26273464448289
C           19.49278002126230       -4.23184994235016       25.49868733462824
C           19.72047165903267       -4.08337038088692       23.98672498506897
C           21.52029635102609       -5.63184989096008       24.09050860680672
C           21.34152499601736       -5.72812496138695       25.60006069304941
C           22.66843775349290       -0.79317804684205       29.22193088724308
C           23.10813913067348        0.39932168463510       28.37678842300893
C           23.98002652626609       -0.09333065712292       27.22431937633936
C           22.70668841254662       -2.31158417422524       21.04157279525922
C           22.59089259250536       -3.19097240893799       19.93601182568910
C           21.93345287141738       -4.41113342532740       20.05117285709228
C           21.43101843018824       -4.76393221021814       21.28387671649335
C           21.55077327797820       -3.91024339167287       22.39163582542218
C           22.15655190408113       -2.67656322166388       22.26823362224680
F           16.03925760478390       -8.48678591679232       27.30166734050531
H           28.03845057353414       -0.95952059424672       19.18529682290811
H           28.48219751201078       -2.62832376190647       18.81088384598769
H           28.38028841760925       -1.42290458422139       17.51289979244802
H           26.01978504347328       -2.47146767582720       19.15057936173562
H           25.79360052377660       -4.64674078941587       18.43057927861189
H           26.30836103562683       -5.00962261846075       16.75705107812089
H           27.51683623259482       -4.54858473460038       17.98160854212498
H           26.26322676029693        1.63492631453336       15.78793391254996
H           24.03238546084111        2.37997486473928       16.64648711919031
H           22.86798019848165        0.91372615751697       18.30250483190789
H           24.02679436159377       -2.74136678185865       16.96148952757799
H           23.17628514829396       -4.18666969105000       17.52696993148864
H           21.00045349748304       -2.95457719806542       17.38363282612674
H           21.85416587581586       -1.52303270141681       16.79630325902225
H           21.82520501910474       -2.99403767658383       15.81876242657502
H           23.84435671688959        0.90233110852545       20.76554946518150
H           22.93233235832123        0.19867022381928       22.10987087369015
H           24.34387141455013        1.47055021927035       23.62711980475376
H           26.08990645252277        1.21353430446849       23.68502932764626
H           25.37365551854355        2.09404061865345       22.33407766477036
H           26.23283084532144       -1.22909693694121       20.88277372987700
H           26.27386232778259        0.50218607047563       20.54754699875532
H           27.19526778164431       -0.15949867831071       21.90085126289801
H           26.01391693764328       -1.36845718915383       23.69276998020496
H           24.74196421238305       -2.14601299810269       22.73456772821260
H           22.32978658001965       -0.71646173487234       25.96315133163993
H           23.56688953353904       -2.79011305179435       27.61451387779876
H           20.94261346463167       -4.18950171807623       27.89336998054367
H           18.12794026753471       -3.43506317950802       27.87617389652988
H           16.75446166223746       -4.41489096954081       29.19395597935006
H           18.01377789236043       -5.83028258212634       31.57673656779374
H           15.09698653439615       -5.03108805752932       31.07310830636272
H           15.66609372570814       -6.69573203054705       31.06705435193551
H           15.72986832140197       -5.74960074308021       32.55449303860021
H           17.37833521628016       -3.80024719980061       32.77433988480082
H           18.39377460723597       -3.36834519697858       31.39726575527734
H           16.65059268596860       -3.11840413256822       31.31791783499898
H           18.78164180723318       -7.14010358203519       26.03429640074102
H           18.62704251423393       -8.47234467670670       27.18059070051606
H           17.60292259840786       -9.91425777936253       25.47279176120128
H           19.14850610970163       -9.26079619869094       24.86194971650549
H           18.42850215485937       -6.43786743624047       19.00262041185364
H           17.09650089875825       -6.36444920124754       17.82000040491809
H           18.31963794852075       -5.10238082946684       17.83639455287786
H           18.36181324106009       -3.45861309151722       19.33696369530788
H           17.17837118914581       -3.30931280872620       20.62951982070051
H           18.48734474409753       -4.50862151840809       20.75833237804330
H           15.72873113948494       -7.50039048290917       19.00698205087221
H           14.37530748932531       -7.08897939480668       20.04646016320161
H           14.69172925103971       -6.11851508594293       18.60034194626117
H           15.63371690032112       -4.22877164446303       21.78816168051351
H           14.69518523062543       -4.03226122628594       20.29617122984708
H           14.29131225115851       -5.31000955457372       21.45347962259314
H           15.56019765197781       -7.78177497350275       23.42444626057316
H           15.57630208949933       -9.04777628208878       24.67813777885318
H           14.96794828960175       -6.84779168562897       25.68445175449084
H           16.44935505298094       -6.13573923339579       25.03744801747797
H           17.59370222034102       -7.61394759917183       30.52307074296106
H           17.39575504371102       -8.47627273780002       29.00620550701329
H           18.90948612871312       -7.58403315631578       29.34999083162405
H           19.45007151367775       -2.17385711625626       26.12798719080991
H           21.08187546451091       -2.82474630666363       25.84743793413655
H           18.41701323768044       -4.29738738815113       25.69972626466069
H           19.43337828695840       -3.08078234010143       23.66649574358560
H           19.08660358776766       -4.81872281719322       23.45411299592077
H           20.91271615506757       -6.41435890514724       23.60477661974704
H           22.56878595747100       -5.78194191237674       23.83025635126555
H           22.01245235892393       -5.01399357511100       26.09012902170146
H           21.55405998545190       -6.73699107398658       25.95675115470173
H           21.95394381317976       -0.50353860415924       29.99204711168687
H           23.53636443683120       -1.26619084394096       29.69462009382177
H           23.66265125868122        1.10116023598908       28.99797841138325
H           22.22626729270727        0.90474148085651       27.98183661208321
H           24.90132401230597       -0.53455251258333       27.61349217558163
H           24.24247021548477        0.72750410418019       26.55830002649291
H           21.82557353298672       -5.07579819830259       19.20687747073526
H           20.93769795429332       -5.71869847160071       21.40597259725421
H           22.21335220085835       -2.03006941217296       23.12855443407828
