151
 energy: -221.336675518840 gnorm: 0.004331513250 xtb: 6.7.1 (edcfbbe)
C           27.97092341487845       -2.28989388645291       18.44568315886389
N           26.68010134537023       -0.19459544596651       17.08167637151008
O           26.14310451956207       -3.14093194253647       17.04898774305078
C           26.46607950740001       -2.33118473561414       18.17980197344645
N           23.28640970627933       -2.46330317211712       18.83977875765721
O           24.19081634830096       -0.98120553459430       24.33350161639402
C           26.14728709857910       -4.52907033254428       17.30334132748541
N           22.60701631533423       -2.18587981598443       27.26174994984250
O           19.77422009823363       -8.20693732853960       23.08019724548485
C           25.93307035518846       -0.94182651309277       17.87953408670010
N           21.79254276294850       -1.68145950282405       28.27884869570135
O           16.61497357606687       -5.39136919929534       26.52072039261582
C           26.28038134136103        1.02601279337814       16.77283427082019
N           18.74284134094239       -3.68193968644862       28.03215962097930
O           19.39338414923256       -5.35775537902880       29.39228336150704
C           25.11042738184878        1.58556672369946       17.26084713837276
N           16.84908114679891       -6.38355336880811       28.52019808771056
O           20.02189841539882       -5.53233352243359       25.83572095566762
C           24.32126449227484        0.81338101348211       18.09466757150271
N           17.77711223407612       -8.83606715274386       23.96878457885635
O           19.82792936484105       -1.69474358355118       29.36554023150246
C           24.71793307299669       -0.48404475765407       18.41250744022939
N           15.80781031741386       -4.66706891335630       21.26699763777999
O           24.82991528619797       -2.65596009136190       25.68078853686469
C           23.88933980872234       -1.31050360361618       19.29756571692352
N           21.20643921230918       -4.26938637013589       23.63306540180411
C           23.05998325324066       -2.77139631007960       17.44838623821408
C           21.86993601618698       -1.98292687784026       16.90326557337672
C           23.63890921528340       -1.13738851035391       20.63964503650266
C           24.04811312187158        0.00509601041652       21.51391841532804
C           25.33751012891234       -0.18952092827373       22.34276874352818
C           25.63195672047529        1.11217962708687       23.09302164976162
C           26.51146132443478       -0.53641990556387       21.42894520802705
C           25.18084385690454       -1.33116683674299       23.35503621149936
C           24.12808813805538       -1.69828540395079       25.43567434769645
C           23.11564155446629       -1.11854443236360       26.40727585635969
C           20.54742243358802       -2.14043874515422       28.47644780734475
C           20.07339948867394       -3.31083458383688       27.60614794104521
C           18.50552045193682       -4.69341627912665       28.86868281082641
C           17.02060390179433       -5.02700743998074       29.06131207979660
C           16.57063445869943       -4.80691809859348       30.50792919674995
C           15.09436742585543       -5.15951599039168       30.67722948750579
C           16.79361584811815       -3.33127855102328       30.84693417659090
C           16.72398256830799       -6.42561927330219       27.18761039296581
C           16.73206186971740       -7.76153536321600       26.41492482163086
C           18.18691892679503       -8.23143754390900       26.28124725763073
C           18.35517111215552       -9.31053604022657       25.20544350469553
C           18.54310869137741       -8.14231224420140       23.09940886258429
C           17.83898631280033       -7.30555190697293       22.16389462019221
C           17.43883083726862       -6.46537722088600       21.39682816766301
C           16.82395284075065       -5.44890306168393       20.54293640767125
C           16.32827232896022       -3.92413492921440       22.39917568068704
C           14.64184219614116       -5.43242055276404       21.66975869280064
C           17.92962589891886       -4.51585279268691       20.02090885458178
C           16.18698933447411       -6.15864079364320       19.33632698305977
C           16.34810030003523       -8.65538932860062       24.06849527446355
C           16.04003973222963       -7.54205085781994       25.06488767580052
C           17.24682574658690       -7.48584087090189       29.37134540597516
C           20.06798087201439       -3.07546606258002       26.09563096325217
C           19.50351533584962       -4.30002234678815       25.34826015660252
C           19.77752991117646       -4.16409177916366       23.84564256662155
C           21.66890743490432       -5.58329956759255       24.04330859409312
C           21.39697679423096       -5.71883406175734       25.53933576685558
C           22.36815889498086       -0.65151247968793       29.13214209926970
C           22.84973899693031        0.51643239189259       28.27559581807220
C           23.81385064880538       -0.00295605112749       27.21168224810081
C           22.84535993543318       -2.25340280267754       21.03984496722072
C           22.64026384778035       -3.05456684212964       19.88851996127964
C           21.92337862495594       -4.24471841374525       19.95816253254275
C           21.44943576222565       -4.64792689859104       21.18749791899107
C           21.64587258721808       -3.86388204106359       22.33373416709640
C           22.30988330140069       -2.65793296442398       22.26047329434642
F           15.99491027726685       -8.74804727097483       27.09184526787396
H           28.17628112539793       -1.61932572548296       19.27421509778728
H           28.34141661048670       -3.28045874095955       18.69527759987819
H           28.47605009662260       -1.92605020430377       17.55694181135261
H           25.94072885922779       -2.73750342241445       19.05867815969654
H           25.43211032830752       -4.78072574033249       18.09600121483440
H           25.84638042240343       -5.00163285068872       16.37207578088977
H           27.13868861560297       -4.88794532128650       17.58956402881312
H           26.93610709196491        1.57349772523243       16.10969500120340
H           24.82608198699758        2.58960166377403       16.99161481209642
H           23.39406215414754        1.20046294130307       18.49135673581504
H           23.96072845073724       -2.53509059552030       16.87786166932175
H           22.87045834477095       -3.84315780936595       17.36379861401963
H           22.08524290658964       -0.91696612102401       16.92234242843579
H           21.66718956700439       -2.27880995414244       15.87892118418695
H           20.98627796087649       -2.17065425905241       17.50864684777048
H           24.19557161397507        0.88835376810732       20.88978778658480
H           23.23083122894562        0.20764021605157       22.20879488538819
H           24.79669054449316        1.37380820915851       23.73702392482514
H           26.52299653684886        1.00349061258705       23.70681560009939
H           25.79540609304110        1.92239380748501       22.38833715959566
H           26.34447630047206       -1.49797212203611       20.95325305283707
H           26.62063188568352        0.21830681272068       20.65463475585107
H           27.43656670231323       -0.58744542351664       21.99735691097392
H           26.12523418360680       -1.52152657527326       23.87527373194416
H           24.87029096507593       -2.25608532197804       22.86096378145218
H           22.27617423880691       -0.69513292077380       25.84769859569315
H           23.39644184758859       -2.70533248486450       27.65109817391359
H           20.71928953800629       -4.16300271435099       27.85217207965770
H           17.97437564792901       -3.15171098811010       27.65067383148761
H           16.42094598496302       -4.37771605134127       28.41678709883004
H           17.19152624754384       -5.40870962228202       31.17662900077889
H           14.78795648335372       -4.98546061544926       31.70467693467467
H           14.48845579004114       -4.53359269803948       30.02584245747278
H           14.89562101123568       -6.19753798523007       30.42716792398450
H           17.83579017094399       -3.04811786920142       30.71139287739323
H           16.18402186086233       -2.69880468303091       30.20565150280541
H           16.51710221999802       -3.14106202905279       31.87971829982421
H           18.79528452405076       -7.36077852114511       26.02318392629465
H           18.53328000444598       -8.61566710600087       27.23953909420608
H           17.84757088631709      -10.23223923174039       25.49935218792349
H           19.41520574648474       -9.50968621142524       25.04171281141423
H           16.72433937613268       -4.56895321731776       23.20027248546495
H           17.11281883319710       -3.24567686455832       22.07812607819936
H           15.51831776720799       -3.32880330184004       22.81732847937999
H           13.95840202954955       -4.75978532209820       22.18469871362487
H           14.13002721799344       -5.82584314793211       20.79684809210444
H           14.88738347202824       -6.25973225306326       22.35234244550771
H           18.57179942227901       -4.15863936308335       20.82151005743577
H           18.55638160037450       -5.05376582687345       19.31564420699651
H           17.47229123536468       -3.66850317135249       19.52027752759409
H           15.54442988253356       -6.97696715695800       19.64708138163881
H           15.60951489907779       -5.43767968286571       18.76563653836693
H           16.96949509517084       -6.57046758125207       18.70509863457594
H           15.94101755175053       -8.40575841885106       23.08767784341753
H           15.91266464106351       -9.59903427590465       24.40734044960385
H           14.96649020578570       -7.46872058461523       25.24042406327087
H           16.39026963900015       -6.58777561438379       24.66894423665206
H           18.33042177844258       -7.46639264332831       29.51140561075635
H           16.77249876011435       -7.37140858829840       30.34223382872870
H           16.93836956586268       -8.43628362127526       28.95445658486545
H           19.44582429460259       -2.21357695552187       25.85621653724852
H           21.08260602707641       -2.89831603826245       25.74687956665958
H           18.42542090574979       -4.39038431360890       25.52251744581558
H           19.43579382602594       -3.18879464334964       23.49591831045952
H           19.22339745384550       -4.95431846134767       23.30556082927077
H           21.15712577494586       -6.40228955218681       23.50928298348924
H           22.74229200509182       -5.65530683744936       23.85967898970080
H           22.00779376073208       -4.99034560798925       26.08571179564480
H           21.63347494430742       -6.72567990342797       25.88670890035611
H           21.59494175877321       -0.34669253474051       29.83688946256116
H           23.20736376589224       -1.08785062915298       29.68522667118154
H           23.34495249264519        1.25069440307691       28.90924843427601
H           21.99233107475522        0.99104844796944       27.79706481375591
H           24.70749448518885       -0.41562571869149       27.68712712927107
H           24.11745802533857        0.79767421373516       26.53856475619619
H           21.75351082181588       -4.85444909039144       19.08384408771187
H           20.91832138712060       -5.58546490231947       21.27743696523115
H           22.41678657226144       -2.06212854318322       23.15114311692139
