151
 energy: -221.329940807470 gnorm: 0.005790568082 xtb: 6.7.1 (edcfbbe)
C            9.68704398809117       15.51134782251151       20.51590857926288
N           10.84562830799646       13.15712885667362       21.50050767740441
O           10.72174563906936       14.20549876511535       18.70906130332263
C           10.96954460573802       14.95115007634107       19.89954249722160
N           14.26027788402169       14.78283011037188       19.07203054746967
O           15.73105838679937       19.16654747560301       22.45194639118804
C           10.35541380956195       14.98968165021206       17.59577609086505
N           18.46577449573162       21.42359605059159       22.08333389320508
O           19.64880434078151       19.30495321847900       12.98133265423646
C           11.64713088943992       14.00568516119845       20.87265829280570
N           19.70227366109856       21.60919575579547       22.71128755398587
O           23.41839633063125       20.70696252340862       17.46597827726277
C           11.35231330877204       12.31488669788729       22.38205393371511
N           22.02787021307273       21.59982322085978       19.91910950745384
O           21.79068836452840       23.84155923937513       19.94196916700158
C           12.69817623956729       12.28372079358179       22.71270830017735
N           23.38892519103647       22.95647194749766       17.50087536060894
O           19.62645073849577       21.01521475352168       17.90901973791603
C           13.54404157583564       13.15815926552008       22.05643457877252
N           21.63746731563598       20.37734193748672       13.19087166356022
O           21.94680886936435       21.60972054812649       22.57747823545739
C           13.02977387698650       14.03448960480287       21.10013536022480
N           22.71594236367910       14.93450709356009       12.69900237193569
O           15.76116715698698       21.21737808903524       21.54395168286182
C           13.96133099965506       14.93460802577022       20.40871752797215
N           17.94995067506450       18.87194107871113       18.57622395335512
C           13.82957524665739       13.68793912000321       18.23831865355595
C           14.74391466773013       12.47378227448384       18.39416318753496
C           14.70405306893989       15.95834867450078       20.95223869646160
C           14.70596951334433       16.42834580167776       22.37172768033210
C           13.83587387584677       17.67010016063647       22.67563701279717
C           13.82358420746002       17.89563730087244       24.18968454649211
C           12.40944898593439       17.45824236871615       22.17324449874065
C           14.39714830849315       18.92097314819740       21.98783680290598
C           16.29399275476421       20.32350104677325       22.16278663876725
C           17.68373422676587       20.40239746885808       22.77068060359774
C           20.85620044886375       21.50654233503136       22.02882513219655
C           20.73490344038350       21.33918269346083       20.50911413537241
C           22.45058572460462       22.84001769004186       19.67891849032109
C           23.77763486071528       22.90913837885838       18.91686566687475
C           24.65342144049743       24.08695886061883       19.35681647075367
C           25.95039555048004       24.13821919926496       18.54849515417756
C           24.96116319959902       23.94074270546583       20.84693860860592
C           23.25308114624029       21.78021340859906       16.88004839577535
C           22.90183593722509       21.73864793545067       15.38425320190428
C           21.38258413896594       21.75356232658619       15.18992864212576
C           21.03219830493089       21.58107459826646       13.71115390305633
C           20.88051357220687       19.30461212364794       12.90506580470366
C           21.58179573798589       18.13744030148081       12.43364744056934
C           21.96497765371304       17.06536205353103       12.04164607751305
C           22.48881835686648       15.79884321424852       11.53254371579089
C           23.73000930905691       15.43726739957576       13.60456242262331
C           22.93618053920813       13.53292865321318       12.40929655532474
C           21.39336719649348       15.21952329828016       10.62430515417019
C           23.75159158433521       16.08328241119703       10.69245238706198
C           23.07722635962346       20.36388051526218       13.28163848228748
C           23.50871293619848       20.48519648341756       14.74468790298124
C           22.92499779390526       24.24206564754198       17.01943018995850
C           20.21740693397490       19.97158923783154       20.07014195651619
C           20.14894484574745       19.85134943111671       18.53456374441217
C           19.31096123278479       18.62174731045042       18.14928065252799
C           17.40551580577023       20.00694051733259       17.85298887586304
C           18.25223952424991       21.23245231338741       18.18836549833691
C           19.67916324461261       21.93096911271992       24.13014599156805
C           18.92112851485398       20.84776137981252       24.89233175185481
C           17.53262927534388       20.68270472153210       24.27914700475887
C           15.51464800830118       16.46436996480125       19.89407592080897
C           15.21903896465777       15.69689682912235       18.73929340874629
C           15.86303884617643       15.94056951411719       17.52978864209570
C           16.77364397993398       16.97297922849634       17.47246135225415
C           17.06831244485355       17.74609545325901       18.60538854195989
C           16.46523916417235       17.47918990974534       19.81529572753984
F           23.46598886895073       22.84298384266813       14.72991591935554
H            9.22650083600914       16.23833001558828       19.85389221894880
H            8.99931014680415       14.69136154459299       20.69652004201856
H            9.91881903648802       15.99563497005040       21.45901619780293
H           11.66150111184067       15.77392963376987       19.65413199497522
H           10.34809115321302       14.31353524110226       16.74404336239396
H            9.36252861283748       15.42805430197093       17.71672185229620
H           11.08577022683568       15.78860566626238       17.42712427384232
H           10.64072411122641       11.64601520949458       22.84607804730459
H           13.06855388658781       11.59435846900999       23.45385202421756
H           14.60425838077587       13.16540750878703       22.26341956671953
H           12.80528675037361       13.41913750181195       18.50522293739863
H           13.83588987330593       14.02966452442071       17.20090312202998
H           15.76534481685712       12.73000352958740       18.12322041456574
H           14.73319460831627       12.12442671738913       19.42401200641244
H           14.39866493518138       11.66975911277291       17.75138965364944
H           14.34706245476602       15.61733946902234       23.00773926247162
H           15.73317882654133       16.66087001790084       22.65672556301815
H           14.83578896853438       18.04896666276884       24.55778302207283
H           13.22780868459321       18.77158859916826       24.43977605992775
H           13.39614180173782       17.03364414621252       24.69688074942068
H           12.00308992833954       16.54109566598180       22.59126083729716
H           11.77223843390303       18.28890367331980       22.46481572090482
H           12.39795734858950       17.37942623882226       21.09005795346276
H           13.78246238805146       19.79881300530735       22.21219101939151
H           14.42546009583757       18.79085401552851       20.90189061858225
H           18.18870983781829       19.44074725357944       22.63283989411311
H           17.93698769963272       22.29718929074511       22.06222446584260
H           20.06082375367573       22.12948767871818       20.15807360502509
H           22.61137244986077       20.81353627882968       19.67368607807592
H           24.33132233978638       21.97643523563558       19.05778804813999
H           24.08919893996750       25.01183182778926       19.22054962378470
H           25.76896942788409       23.94929285865577       17.49456497527991
H           26.41509268420102       25.11446355562938       18.65029906019696
H           26.64741923890382       23.38745814130003       18.91131921259565
H           24.04144411260493       23.87216786566345       21.42473307464867
H           25.54587121644446       23.04319687213333       21.03297766910701
H           25.52380337884564       24.80212348654469       21.19480435128212
H           20.95834457168661       20.94080974256356       15.78021665645548
H           20.95106303105062       22.68239041815803       15.55977778661962
H           21.40633131133613       22.43663651986404       13.14019462642814
H           19.95157307712536       21.49962228530050       13.58491889645942
H           23.59084910923846       16.50635093097098       13.75322273703140
H           23.60962662052608       14.93859268460194       14.56637059161811
H           24.75498065931219       15.25438314179506       13.24882270072564
H           23.02915169585488       13.01026002921681       13.36031148322467
H           22.08237682046835       13.11947580580529       11.88075126354325
H           23.85042587563014       13.34431897387843       11.82633682135916
H           20.54081433033211       14.90962315595937       11.22224708830430
H           21.06473742402344       15.98690201433578        9.92763443448050
H           21.76977776416664       14.37510456857308       10.05493640585246
H           24.49341530766300       16.62485077316922       11.27336332584462
H           24.18346791222906       15.14682120135255       10.34794796415004
H           23.48572711487679       16.68340633267075        9.82660842437016
H           23.45909226057732       19.43856940809596       12.85001297699337
H           23.46932426525047       21.21522475681311       12.71611761730982
H           24.59540271779904       20.54460177852588       14.80861520267813
H           23.17646976779876       19.62027097857471       15.31873772722498
H           23.76892248094083       24.88393905015904       16.76810730391014
H           22.29690933644241       24.13628254845204       16.14376398915066
H           22.33486100864847       24.70639859723022       17.81055342222294
H           20.87405422052491       19.18768595911143       20.44772990849432
H           19.21581843835312       19.82494009008865       20.46823186917922
H           21.15832889109021       19.76066055492946       18.11741864803943
H           19.68934094699145       17.73698665340516       18.66260453957554
H           19.39056866026327       18.46197542088295       17.05825498593498
H           17.41021754080936       19.83954119079883       16.75993608994527
H           16.37831619002648       20.17736973783932       18.18038504371430
H           18.10736778900519       21.48495698191257       19.24518122738991
H           17.96365535192700       22.08375237332926       17.56985668079584
H           20.71493903588179       22.01074149024649       24.45927016947619
H           19.18450992501783       22.90056239999667       24.25626975554610
H           18.84119110418808       21.12858977673255       25.94129840206960
H           19.46956482004684       19.90761518149273       24.82363816339761
H           16.95269236369387       21.59879629900473       24.41549460365885
H           16.99682048625185       19.85890096221026       24.74802488763443
H           15.65703380964777       15.34844593005333       16.65114267845723
H           17.27274504454804       17.19540372232970       16.53966538237688
H           16.74131945152109       18.06376066751462       20.67557255591692
