151
 energy: -221.041298876151 gnorm: 0.318713463888 xtb: 6.7.1 (edcfbbe)
C           -8.62100000000000       -4.54800000000000        3.96200000000000
N           -6.77900000000000       -6.49100000000000        5.61600000000000
O           -7.28100000000000       -6.13000000000000        2.67000000000000
C           -7.17300000000000       -5.03700000000000        3.66100000000000
N           -3.99500000000000       -4.75700000000000        2.81400000000000
O           -3.29600000000000        0.86700000000000        4.37200000000000
C           -7.25800000000000       -5.75000000000000        1.31900000000000
N           -0.34200000000000        2.70200000000000        2.92000000000000
O            1.62300000000000        1.12000000000000       -7.38400000000000
C           -6.31100000000000       -5.55200000000000        4.78500000000000
N            1.08600000000000        2.80300000000000        3.28000000000000
O            4.82700000000000        2.97000000000000       -3.41400000000000
C           -6.05600000000000       -6.85100000000000        6.72400000000000
N            2.60800000000000        2.86200000000000       -0.23500000000000
O            1.78400000000000        4.93300000000000       -0.54500000000000
C           -4.90600000000000       -6.21200000000000        7.09900000000000
N            3.96500000000000        4.84200000000000       -2.81700000000000
O           -0.60600000000000        1.97800000000000       -1.09600000000000
C           -4.37500000000000       -5.24700000000000        6.24500000000000
N            3.15900000000000        2.83300000000000       -7.73100000000000
O            3.25600000000000        2.75800000000000        2.34000000000000
C           -5.04800000000000       -4.95500000000000        5.05700000000000
N            5.51100000000000       -2.57400000000000       -7.00000000000000
O           -3.06100000000000        2.38000000000000        2.71500000000000
C           -4.33900000000000       -4.16200000000000        4.01700000000000
N           -1.56600000000000       -0.41900000000000        0.19000000000000
C           -3.94300000000000       -6.24200000000000        2.48400000000000
C           -2.60100000000000       -6.81800000000000        2.95600000000000
C           -3.80700000000000       -2.90700000000000        3.99800000000000
C           -3.95100000000000       -1.89800000000000        5.08100000000000
C           -4.99000000000000       -0.70900000000000        4.94900000000000
C           -5.11700000000000       -0.03500000000000        6.34800000000000
C           -6.39100000000000       -1.32600000000000        4.71100000000000
C           -4.57300000000000        0.37500000000000        3.89800000000000
C           -2.61100000000000        1.83600000000000        3.70800000000000
C           -1.12400000000000        1.93800000000000        3.98100000000000
C            2.03800000000000        2.74300000000000        2.20400000000000
C            1.58100000000000        2.50700000000000        0.77300000000000
C            2.76600000000000        4.20000000000000       -0.66700000000000
C            4.16100000000000        4.52000000000000       -1.36900000000000
C            4.89700000000000        5.61200000000000       -0.57800000000000
C            6.23400000000000        5.95200000000000       -1.25400000000000
C            5.18400000000000        5.21700000000000        0.83900000000000
C            4.37300000000000        4.02800000000000       -3.86500000000000
C            4.05500000000000        4.03000000000000       -5.35400000000000
C            2.62800000000000        3.62000000000000       -5.52400000000000
C            2.18900000000000        3.77600000000000       -7.10200000000000
C            2.77800000000000        1.40400000000000       -7.60200000000000
C            3.65400000000000        0.31500000000000       -7.30400000000000
C            4.59700000000000       -0.38900000000000       -7.04400000000000
C            5.84000000000000       -1.11100000000000       -6.79700000000000
C            5.27600000000000       -2.99300000000000       -8.46500000000000
C            6.42500000000000       -3.49500000000000       -6.30200000000000
C            6.93600000000000       -0.50400000000000       -7.77400000000000
C            6.22400000000000       -0.75800000000000       -5.28500000000000
C            4.56600000000000        3.10800000000000       -7.71600000000000
C            4.99800000000000        3.14600000000000       -6.24600000000000
C            3.18600000000000        6.00400000000000       -3.12400000000000
C            1.20200000000000        1.08700000000000        0.42900000000000
C            0.38100000000000        0.95000000000000       -0.87700000000000
C           -0.40100000000000       -0.48800000000000       -0.73600000000000
C           -2.50300000000000        0.68600000000000       -0.07500000000000
C           -1.69400000000000        2.03000000000000       -0.14400000000000
C            1.35400000000000        3.45200000000000        4.53700000000000
C            0.62200000000000        2.76200000000000        5.71500000000000
C           -0.86200000000000        2.64200000000000        5.41500000000000
C           -3.13600000000000       -2.71700000000000        2.68600000000000
C           -3.40600000000000       -3.87800000000000        2.00000000000000
C           -2.99700000000000       -3.93300000000000        0.69500000000000
C           -2.32000000000000       -2.80700000000000        0.09700000000000
C           -2.09300000000000       -1.60500000000000        0.81900000000000
C           -2.54500000000000       -1.54700000000000        2.17900000000000
F            4.21500000000000        5.32800000000000       -5.74600000000000
H           -9.11500000000000       -4.12700000000000        3.08200000000000
H           -9.14100000000000       -5.39500000000000        4.41800000000000
H           -8.56100000000000       -3.67000000000000        4.61200000000000
H           -6.66400000000000       -4.18700000000000        3.19900000000000
H           -7.70200000000000       -6.49400000000000        0.65100000000000
H           -7.87200000000000       -4.85400000000000        1.19500000000000
H           -6.34700000000000       -5.26100000000000        0.96000000000000
H           -6.35400000000000       -7.67400000000000        7.36700000000000
H           -4.30700000000000       -6.67100000000000        7.88000000000000
H           -3.48200000000000       -4.71600000000000        6.56000000000000
H           -4.76000000000000       -6.84700000000000        2.88800000000000
H           -3.93900000000000       -6.41800000000000        1.40400000000000
H           -1.82000000000000       -6.45600000000000        2.28100000000000
H           -2.52200000000000       -6.69500000000000        4.04000000000000
H           -2.62300000000000       -7.90100000000000        2.80400000000000
H           -4.18600000000000       -2.51900000000000        5.95000000000000
H           -2.99400000000000       -1.45100000000000        5.36400000000000
H           -4.17700000000000        0.44900000000000        6.62800000000000
H           -5.90900000000000        0.72000000000000        6.34300000000000
H           -5.42000000000000       -0.72500000000000        7.14100000000000
H           -6.55900000000000       -1.95100000000000        5.59300000000000
H           -7.19100000000000       -0.58200000000000        4.66200000000000
H           -6.29800000000000       -1.90800000000000        3.79000000000000
H           -5.32800000000000        1.16300000000000        3.82700000000000
H           -4.40900000000000       -0.04500000000000        2.90100000000000
H           -0.73000000000000        0.91800000000000        4.02100000000000
H           -0.80500000000000        3.60400000000000        2.82400000000000
H            0.73800000000000        3.16200000000000        0.53300000000000
H            3.47000000000000        2.33100000000000       -0.12600000000000
H            4.71700000000000        3.59100000000000       -1.20900000000000
H            4.23800000000000        6.47900000000000       -0.47800000000000
H            6.68200000000000        4.98900000000000       -1.51800000000000
H            6.16900000000000        6.41100000000000       -2.24500000000000
H            6.92900000000000        6.42300000000000       -0.55300000000000
H            5.86000000000000        5.94200000000000        1.30300000000000
H            4.28300000000000        5.27500000000000        1.45600000000000
H            5.62500000000000        4.22000000000000        0.92500000000000
H            2.54300000000000        2.54400000000000       -5.34600000000000
H            1.92600000000000        4.14800000000000       -4.87100000000000
H            2.42200000000000        4.76000000000000       -7.52000000000000
H            1.12500000000000        3.52300000000000       -7.13700000000000
H            4.55500000000000       -2.36900000000000       -9.00100000000000
H            6.19300000000000       -2.89300000000000       -9.05400000000000
H            4.93000000000000       -4.03100000000000       -8.44700000000000
H            7.44800000000000       -3.19000000000000       -6.54200000000000
H            6.13200000000000       -3.44800000000000       -5.24900000000000
H            6.24900000000000       -4.52400000000000       -6.63100000000000
H            6.76900000000000       -0.72000000000000       -8.83400000000000
H            7.03400000000000        0.57300000000000       -7.60700000000000
H            7.86500000000000       -1.04800000000000       -7.58300000000000
H            5.41500000000000       -0.92400000000000       -4.56800000000000
H            7.00700000000000       -1.41400000000000       -4.89300000000000
H            6.52700000000000        0.28900000000000       -5.19500000000000
H            5.14000000000000        2.35200000000000       -8.26100000000000
H            4.73100000000000        4.06800000000000       -8.21300000000000
H            6.05000000000000        3.43200000000000       -6.15800000000000
H            5.06200000000000        2.13000000000000       -5.84500000000000
H            2.15100000000000        5.69000000000000       -3.28600000000000
H            3.14200000000000        6.81600000000000       -2.39300000000000
H            3.45400000000000        6.49700000000000       -4.06300000000000
H            2.10300000000000        0.47800000000000        0.31200000000000
H            0.53800000000000        0.75000000000000        1.23000000000000
H            1.08600000000000        0.93800000000000       -1.71300000000000
H            0.31000000000000       -1.22900000000000       -0.36000000000000
H           -0.79700000000000       -0.82800000000000       -1.69800000000000
H           -3.08600000000000        0.47300000000000       -0.97600000000000
H           -3.20600000000000        0.70000000000000        0.76300000000000
H           -1.34600000000000        2.38700000000000        0.82900000000000
H           -2.47100000000000        2.73800000000000       -0.44700000000000
H            2.42700000000000        3.49400000000000        4.74600000000000
H            1.16600000000000        4.52000000000000        4.39000000000000
H            0.86500000000000        3.27300000000000        6.65100000000000
H            0.97600000000000        1.73800000000000        5.86700000000000
H           -1.27500000000000        3.65000000000000        5.31100000000000
H           -1.39900000000000        2.25800000000000        6.28700000000000
H           -3.08200000000000       -4.85300000000000        0.12400000000000
H           -1.77300000000000       -2.78700000000000       -0.84100000000000
H           -2.49900000000000       -0.56000000000000        2.63100000000000
151
 energy: -221.173223450750 gnorm: 0.178609013596 xtb: 6.7.1 (edcfbbe)
C           -8.60196218453819       -4.54998796420691        3.97471277341630
N           -6.78290474011273       -6.48061600672163        5.62797525083254
O           -7.26352674333015       -6.12998838713149        2.66315837445188
C           -7.17025677582740       -5.04714989802877        3.64569085600100
N           -4.00552466553078       -4.77918447205832        2.79386823601951
O           -3.27721140793451        0.88174669804558        4.37066725800657
C           -7.27427506258475       -5.71063674995812        1.32005515278724
N           -0.34148202725016        2.68417722048540        2.94092755384039
O            1.57530801905667        1.12855928716632       -7.40371449661899
C           -6.31489418495553       -5.54105388980487        4.80663047371226
N            1.07842256644876        2.79636295496538        3.25197218462727
O            4.86424943045642        2.92923122257544       -3.41483760604118
C           -6.05846532591455       -6.85172185340794        6.70387053381152
N            2.62314900035208        2.88811977174010       -0.21183143373481
O            1.81149908806692        4.94966470349126       -0.55364725284877
C           -4.89265790868482       -6.22458914822994        7.07604757713960
N            3.96347734478840        4.84856386270222       -2.81845282314813
O           -0.61297933067997        1.96615109310616       -1.08682106507876
C           -4.37799550679734       -5.24072338393668        6.23877928486065
N            3.13673901294500        2.79111920698354       -7.74880894694795
O            3.23534888568926        2.77630455457009        2.38223794266212
C           -5.03991779120730       -4.95033377222343        5.04587463617333
N            5.50532547140911       -2.56670591834500       -7.01518100135837
O           -3.07776816022159        2.39648186458991        2.71912938553461
C           -4.32758162756264       -4.16669101953613        4.00366122626384
N           -1.54794376089757       -0.42519088432278        0.21548407178325
C           -3.94007414858186       -6.23742412510721        2.48396427017113
C           -2.60971265202391       -6.82976641826211        2.95540036223853
C           -3.81452866504356       -2.88886599790093        3.99295037714973
C           -3.95057916455406       -1.88967917803017        5.09461171389112
C           -4.98855245132940       -0.71190444572544        4.97031294715676
C           -5.11168354456838       -0.02642808158965        6.34987203915725
C           -6.37502962350901       -1.32500958835842        4.70463205944930
C           -4.56072641626759        0.36712749825738        3.92250180208144
C           -2.59095155632470        1.80513582563776        3.66518565003494
C           -1.10571260764200        1.94760102264689        4.01270680704602
C            2.02268171590759        2.72304650483191        2.20484036036738
C            1.56880614360630        2.51868588675501        0.75385498900533
C            2.76121886260149        4.18836341781660       -0.67528278452361
C            4.13926696787860        4.51717772933791       -1.37214281500180
C            4.89157661038380        5.61948906668409       -0.58756823827945
C            6.23498742785033        5.92842062235683       -1.26445903125066
C            5.17914458110238        5.21451302692653        0.84667105636449
C            4.35770822107100        3.98431392939480       -3.82336008866822
C            4.06429473116464        4.04393713661318       -5.33989335409802
C            2.62108310826954        3.62415255983640       -5.54096489731786
C            2.22860601001242        3.75205637906144       -7.08222112229108
C            2.75820810806412        1.42456360835814       -7.54025599335378
C            3.68786413169674        0.34641867120284       -7.35247289167479
C            4.61707339305633       -0.36572126969851       -7.05721870307983
C            5.83409425505008       -1.12023674775440       -6.79427641081518
C            5.28933541079500       -2.97923771316455       -8.44827253207518
C            6.41412565481666       -3.48355560833141       -6.31591622656979
C            6.93275418096181       -0.52625203094847       -7.75945034598995
C            6.22210748589999       -0.77383480241864       -5.29815592018549
C            4.54688127486714        3.11088438157245       -7.69528944626467
C            5.00573924625059        3.15205049987370       -6.22370379155271
C            3.16914532326113        6.01019709698312       -3.13342307169213
C            1.17959569847555        1.08342313817093        0.43782735846791
C            0.34173923252280        0.92211743190183       -0.85371119241881
C           -0.41548444453656       -0.48986857757685       -0.73282935840949
C           -2.47959544127992        0.67005168868350       -0.06186627382531
C           -1.70377780250095        2.01228936462840       -0.14960955366084
C            1.36390913678045        3.44680938980186        4.52436543502840
C            0.62619970493272        2.75734893299947        5.69549361051716
C           -0.86784949259987        2.66438023510218        5.40748828822024
C           -3.16428199541718       -2.68285512958879        2.69982770605388
C           -3.38354107387450       -3.87466170717841        1.99234743248958
C           -2.95441271697489       -3.92732561144648        0.67900346768861
C           -2.29895453505856       -2.81231548690443        0.11466796312125
C           -2.10324714774048       -1.60468162869968        0.82200664773272
C           -2.55948984297910       -1.54343814053339        2.15746807540078
F            4.22032756599476        5.34875212546402       -5.76275997289731
H           -9.10059660897057       -4.15788447568606        3.08262381059872
H           -9.14631518123287       -5.38061164123830        4.41710283950224
H           -8.55542365278157       -3.68267155089836        4.63326353705613
H           -6.65227431498142       -4.19504191364395        3.19101478107000
H           -7.67705302499837       -6.49525361229418        0.67245885206059
H           -7.91968013759945       -4.83720566789901        1.19601810390064
H           -6.31784391798401       -5.30048155710261        0.96404126793759
H           -6.38089790094081       -7.66904296027222        7.34100504107435
H           -4.31476435346707       -6.64598787499006        7.89111501434425
H           -3.47707716845610       -4.72219510835278        6.54083884485858
H           -4.76747978163575       -6.81788457723994        2.89920676397616
H           -3.95755816146749       -6.39318028506224        1.40308378622756
H           -1.81514362871700       -6.44562377556840        2.31449284936178
H           -2.50095300861122       -6.68014201216685        4.02874879530880
H           -2.62820657783258       -7.90875223925824        2.80107274194623
H           -4.20723797534978       -2.50190680142296        5.96270527130452
H           -2.98608578822779       -1.44363641514269        5.34743380713790
H           -4.17584489897046        0.44985968696479        6.63111200979835
H           -5.90155108501933        0.72609085488005        6.33276353629446
H           -5.40598757589222       -0.73076231563233        7.12952544669605
H           -6.56893128720621       -1.95959571712353        5.57097434621920
H           -7.17466628063772       -0.58519705679326        4.65180574665881
H           -6.31634717707701       -1.91112321909733        3.79110141328708
H           -5.31402785229417        1.16024413374882        3.84043494273020
H           -4.41845533539638       -0.05012634185729        2.91710114887304
H           -0.71802583673042        0.92401449304772        4.02902438957416
H           -0.78938847517803        3.59794053332558        2.82853457308119
H            0.72644972739541        3.17300128023076        0.53008262737353
H            3.47096609149500        2.33678986655760       -0.12362829597267
H            4.71732907675758        3.59510926691907       -1.24268995438527
H            4.24204947917222        6.49402665471459       -0.49896324283900
H            6.69503320151836        4.97218761376848       -1.51359384534381
H            6.15683397222222        6.43077106555638       -2.22877317587998
H            6.91184955359933        6.43269507555887       -0.57266167305389
H            5.86239653244805        5.93591840450794        1.29921155601500
H            4.27630583513560        5.25711203503172        1.45589526372420
H            5.62129354481709        4.22199030483604        0.92674598241786
H            2.53957202054898        2.55297688893924       -5.33635742853486
H            1.92941734610763        4.15376188120148       -4.88321290922275
H            2.42704744841455        4.74400813041005       -7.50227851835634
H            1.16263584537116        3.50735506276652       -7.15237126705855
H            4.55155945198207       -2.36321673809827       -8.96819480051574
H            6.20320123973339       -2.90428387534659       -9.04545220177900
H            4.93637204915717       -4.01301115668284       -8.43925432540985
H            7.45183557525741       -3.20413510341829       -6.52456262478539
H            6.14999845457323       -3.44476161569906       -5.25665695661732
H            6.24659253074328       -4.51250396475159       -6.63931580354462
H            6.74278221832750       -0.71359970949681       -8.81980146711406
H            7.03274193942093        0.54948829725924       -7.60239604138806
H            7.87373567137460       -1.03959686174910       -7.56612698132021
H            5.40065988598993       -0.92383310768531       -4.59342027917190
H            7.01938876278180       -1.40845977108967       -4.91339242041771
H            6.52385858559586        0.27261081938187       -5.21023138711941
H            5.12320005230706        2.35607085279284       -8.24475100112627
H            4.72231031278017        4.06900978657250       -8.20011529459254
H            6.05040769303724        3.46269996957259       -6.15303618139193
H            5.03603637466256        2.13057693935438       -5.83419737028632
H            2.13252848688910        5.69468158649269       -3.27895329204128
H            3.15428013863253        6.80032074368649       -2.38169779597564
H            3.46858275648058        6.49233045134643       -4.06468748980294
H            2.08479678307005        0.47867730119186        0.32518144519109
H            0.54134882916433        0.73587862009455        1.24621987406503
H            1.04369062697293        0.93462019609094       -1.70380796873808
H            0.30381014262596       -1.22328062648331       -0.36130340442107
H           -0.78598666455984       -0.81339240412014       -1.71303166532494
H           -3.06464689530870        0.48244882190435       -0.97792799487120
H           -3.19676209877631        0.71204036463238        0.76266001279696
H           -1.34769912699501        2.35738774402284        0.82777407318473
H           -2.44875543081958        2.74725974721267       -0.47164618241209
H            2.43750875499805        3.46626976246557        4.73233694241602
H            1.13493933179753        4.51778741061695        4.40866590944986
H            0.84964918011854        3.28076428919390        6.63212467591896
H            0.99134852506732        1.73831857221900        5.84803469250926
H           -1.28060000691791        3.66864417001036        5.30439143158702
H           -1.39773575291891        2.23201599165488        6.26201149287319
H           -3.07599355055156       -4.83902075170834        0.10537254850268
H           -1.80144925817690       -2.80895506412028       -0.84810649854461
H           -2.48135873151400       -0.57955177573332        2.63894100137030
151
 energy: -221.243301397768 gnorm: 0.071102928539 xtb: 6.7.1 (edcfbbe)
C           -8.58142190538913       -4.55537284440868        3.98475282051008
N           -6.78413319330103       -6.46482967194262        5.63582664221647
O           -7.24664151702496       -6.12057859492472        2.66216894368445
C           -7.16502660651475       -5.05377658234699        3.63287101434426
N           -4.01077568440574       -4.79191518542942        2.77197929763681
O           -3.24800331802856        0.89146919228357        4.36450440648029
C           -7.28679260969173       -5.67795055370425        1.32265496850123
N           -0.34106604183948        2.66611246829324        2.95547826645673
O            1.54997923628270        1.14475134714985       -7.40540227478244
C           -6.30995847033323       -5.53234250970095        4.81880126260402
N            1.06347273074825        2.79385779510423        3.22092674970156
O            4.89001734754173        2.89671377505730       -3.41467696923893
C           -6.06466747253017       -6.84420682574386        6.68530129711123
N            2.63952296649486        2.91850257715380       -0.18053812416252
O            1.83692375759233        4.97405856276611       -0.57015046246970
C           -4.88161289941398       -6.23181990114664        7.05479175421818
N            3.96132034163370        4.84652276808201       -2.82335421824445
O           -0.62287682835279        1.94775487109404       -1.07727331150285
C           -4.37717567984173       -5.24048267481102        6.22782009675977
N            3.12069304470438        2.74379921550184       -7.73252087619508
O            3.20321025204573        2.79516376445693        2.43239152452218
C           -5.02947150249880       -4.94602949076959        5.02885463455364
N            5.50679265917086       -2.55748481654688       -7.02780248858001
O           -3.08546285281475        2.40008291919936        2.71987192854175
C           -4.31682108745299       -4.16891329770108        3.98621198091900
N           -1.52838861313410       -0.42460478386367        0.24399682877432
C           -3.93821974611878       -6.22274888044166        2.48426007717238
C           -2.61991204939708       -6.83767468544327        2.95399123709330
C           -3.83024188236018       -2.87084272306286        3.98352219561848
C           -3.95184323246765       -1.88400683649736        5.10852949331907
C           -4.98101787008836       -0.71323225320483        4.98555390047135
C           -5.10561346839185       -0.02192797408287        6.35117790662161
C           -6.35608231420189       -1.32138708608182        4.69795105608428
C           -4.54169509801476        0.35897941566150        3.94297881909616
C           -2.58462911517693        1.80330369399404        3.64674572246801
C           -1.09051480376649        1.95461466584933        4.03243628318040
C            1.99823106815115        2.71822067845479        2.20969278020370
C            1.55755062230339        2.52879108874970        0.73695155231900
C            2.75893576825345        4.17814337150696       -0.67181540269603
C            4.11600186220425        4.50776893983849       -1.37736538729487
C            4.88513415295545        5.61817808053260       -0.59695128976629
C            6.23066532478444        5.90581165119219       -1.27519908684019
C            5.17072106761569        5.21064223452271        0.85317714743026
C            4.35435541544028        3.94766966058271       -3.77827630363145
C            4.07392509788485        4.05208495783406       -5.31734821324084
C            2.61806118726837        3.62463065463323       -5.56107937801356
C            2.26099278276742        3.72809863942000       -7.05525722859938
C            2.73687061485339        1.43678887203578       -7.54667097898477
C            3.71972811180165        0.39935824483668       -7.37082790088868
C            4.63188555422111       -0.33428387613805       -7.07431374968251
C            5.82767567955014       -1.12468826893234       -6.80103363547798
C            5.30251341351131       -2.96087382658998       -8.42323891889811
C            6.40382338472759       -3.47152306746973       -6.32774026497411
C            6.93249565885421       -0.54736765876098       -7.74653217863729
C            6.21416227947514       -0.79150714530550       -5.31906932954621
C            4.53204773122669        3.10660329707630       -7.66726216005886
C            5.00660077962503        3.15859194859902       -6.19690594748697
C            3.15250818778554        6.00911166069771       -3.14615443476067
C            1.15514650744197        1.08077640790691        0.44800738726650
C            0.30263305035229        0.89285289470853       -0.83096615943816
C           -0.43002240839444       -0.48775367312006       -0.72421843041710
C           -2.45892686209869        0.65552625991447       -0.04893626211980
C           -1.71026714658022        1.99160444341547       -0.15005994408204
C            1.37113806542258        3.43635869422646        4.51155387376950
C            0.62728906371957        2.75167014726237        5.67353590896472
C           -0.87482949887051        2.67503424910312        5.38864078494417
C           -3.19614102716589       -2.65280515313904        2.71418772890862
C           -3.36100500599478       -3.86343622161717        1.98533254978405
C           -2.91148417451193       -3.91688351178385        0.66720259018315
C           -2.27803532617512       -2.81408514000244        0.12562919083942
C           -2.10726792469756       -1.60336097622597        0.82320863167584
C           -2.57006924931582       -1.54291595947036        2.13334163998408
F            4.22941759260089        5.36226296342673       -5.76577433584179
H           -9.08658535739699       -4.19075550596186        3.08446905312723
H           -9.15022837456609       -5.36967205636483        4.41973566473992
H           -8.54140195124617       -3.70128765932929        4.65480528991185
H           -6.63492057345297       -4.20418173072461        3.18229565784550
H           -7.65436151251315       -6.49710654176601        0.69627606953201
H           -7.95456167514240       -4.82700057997175        1.19856874576595