151
 energy: -221.133001787231 gnorm: 0.344640673537 xtb: 6.7.1 (edcfbbe)
C           10.94000100000000       15.07000100000000       23.23000100000000
N           12.48000000000000       12.78000100000000       22.38000100000000
O           10.69000100000000       14.12000100000000       21.01000000000000
C           11.48000000000000       14.86000100000000       21.86000100000000
N           13.98000100000000       16.06000100000000       19.81000100000000
O           16.83000200000000       19.63000100000000       23.42000000000000
C            9.35000000000000       14.60000000000000       20.87000100000000
N           19.03000100000000       21.84000000000000       23.61000100000000
O           26.38000100000000       16.82000000000000       15.27000000000000
C           12.77000000000000       13.99000100000000       22.00000000000000
N           20.38000100000000       22.36000100000000       23.68000000000000
O           23.74000200000000       21.94000100000000       18.54000100000000
C           13.50000000000000       12.02000000000000       22.79000100000000
N           21.10000200000000       22.51000200000000       20.07000200000000
O           19.48000100000000       23.68000000000000       19.05000100000000
C           14.83000000000000       12.39000100000000       22.80000300000000
N           22.13000100000000       22.60000000000000       17.16000000000000
O           19.54000100000000       20.65000200000000       18.57000200000000
C           15.17000100000000       13.59000100000000       22.22000100000000
N           24.73000000000000       18.42000200000000       15.40000100000000
O           22.29999900000000       22.27000000000000       22.51000200000000
C           14.14000000000000       14.45000100000000       21.78000300000000
N           26.01000000000000       17.17000200000000        9.95000100000000
O           16.66000200000000       20.91000000000000       25.26000000000000
C           14.51000100000000       15.68000000000000       21.08000000000000
N           16.69000100000000       20.84000000000000       18.83000200000000
C           13.34000100000000       15.10000100000000       18.92000000000000
C           14.29000000000000       13.94000100000000       18.47000100000000
C           15.39000000000000       16.67000000000000       21.49000200000000
C           16.03000100000000       16.88000100000000       22.86000100000000
C           15.30000100000000       17.76000200000000       23.95000300000000
C           16.06000100000000       17.39000100000000       25.23000000000000
C           13.83000000000000       17.34000000000000       24.13000100000000
C           15.41000200000000       19.27000000000000       23.61000100000000
C           17.37000099999999       20.37000300000000       24.44000100000000
C           18.90000200000000       20.57000200000000       24.41000200000000
C           21.04999900000000       22.26000000000000       22.50000000000000
C           20.31000100000000       22.07000000000000       21.16000200000000
C           20.62000099999999       23.28000100000000       19.05000100000000
C           21.80000100000000       23.69000200000000       18.05000100000000
C           21.42000200000000       24.99000200000000       17.46000100000000
C           22.53000100000000       25.53000300000000       16.60000000000000
C           21.22000100000000       26.13000100000000       18.43000000000000
C           23.03000300000000       21.73000100000000       17.57000200000000
C           23.27000000000000       20.41000200000000       16.89000100000000
C           24.42000200000000       19.66000000000000       17.48000000000000
C           24.55000100000000       18.27000000000000       16.84000200000000
C           25.57000200000000       17.57000200000000       14.76000000000000
C           25.48000100000000       17.54000100000000       13.34000100000000
C           25.29000100000000       17.39000100000000       12.16000100000000
C           24.82999999999999       17.30000100000000       10.77000000000000
C           27.06000100000000       18.18000000000000       10.30000100000000
C           25.75000000000000       17.19000100000000        8.49000100000000
C           24.01000000000000       15.94000100000000       10.64000000000000
C           23.91000000000000       18.50000200000000       10.52000000000000
C           23.73000100000000       19.26000200000000       14.68000000000000
C           23.59000200000000       20.59000000000000       15.40000100000000
C           21.18000000000000       22.39000100000000       16.06000100000000
C           19.87000100000000       20.60000200000000       21.00000200000000
C           18.92000000000000       20.38000100000000       19.88000100000000
C           17.65000200000000       21.21000100000000       19.93000200000000
C           17.34000000000000       21.01000000000000       17.58000200000000
C           18.62000100000000       20.21000100000000       17.48000000000000
C           20.95000100000000       22.52000000000000       24.99000200000000
C           20.88000100000000       21.22000100000000       25.75000000000000
C           19.48000100000000       20.66000000000000       25.83000200000000
C           15.53000100000000       17.61000100000000       20.43000000000000
C           14.61000100000000       17.24000200000000       19.45000100000000
C           14.34000000000000       18.03000100000000       18.31000100000000
C           15.08000000000000       19.17000000000000       18.11000100000000
C           15.97000100000000       19.63000100000000       19.09000000000000
C           16.19000100000000       18.81000100000000       20.27000200000000
F           22.08000200000000       19.71000100000000       17.09000000000000
H           11.34000000000000       15.93000000000000       23.77000000000000
H            9.87000100000000       15.34000000000000       23.03000300000000
H           10.87000000000000       14.16000000000000       23.76000200000000
H           11.79000000000000       15.76000100000000       21.41000000000000
H            9.29000000000000       15.72000000000000       20.77000000000000
H            9.06000000000000       14.06000000000000       19.94000100000000
H            8.76000000000000       14.26000100000000       21.72000100000000
H           13.25000000000000       11.07000000000000       23.15000200000000
H           15.52000000000000       11.69000100000000       23.21000100000000
H           16.22000100000000       13.94000100000000       22.15000200000000
H           12.49000100000000       14.70000100000000       19.40000200000000
H           13.11000100000000       15.73000000000000       18.06000100000000
H           14.50000000000000       13.29000100000000       19.34000200000000
H           13.78000100000000       13.37000000000000       17.67000000000000
H           15.22000100000000       14.37000100000000       18.00000000000000
H           16.10000200000000       15.87000100000000       23.41000000000000
H           17.07000200000000       17.23000000000000       22.79000100000000
H           15.84000100000000       16.38000100000000       25.50000199999999
H           17.15000000000000       17.54000100000000       25.21000100000000
H           15.67000000000000       18.15000200000000       25.99000200000000
H           13.45000100000000       17.81000100000000       25.03000100000000
H           13.26000100000000       17.71000100000000       23.27000000000000
H           13.65000000000000       16.21000100000000       24.12000300000000
H           15.12000100000000       19.95000100000000       24.39000100000000
H           14.96000100000000       19.47000100000000       22.64000100000000
H           19.34000200000000       19.80000100000000       23.79000100000000
H           18.48000000000000       22.61000100000000       24.12000300000000
H           19.43000000000000       22.73000000000000       21.19000200000000
H           22.07000000000000       22.31000100000000       20.15000200000000
H           22.66000000000000       23.94000100000000       18.61000100000000
H           20.45000100000000       24.88000100000000       17.00000000000000
H           23.44000100000000       25.69000100000000       17.09000000000000
H           22.76000000000000       24.84000200000000       15.67000000000000
H           22.21000300000000       26.45000300000000       16.15000200000000
H           20.33000000000000       26.01000000000000       19.13000100000000
H           22.13000100000000       26.41000000000000       18.94000100000000
H           21.04000100000000       27.01000200000000       17.82000000000000
H           25.36000100000000       20.26000000000000       17.39000100000000
H           24.30000100000000       19.47000100000000       18.56000100000000
H           23.54999900000000       17.68000000000000       17.00000000000000
H           25.40000200000000       17.66000000000000       17.17000200000000
H           26.71000300000000       19.15000200000000       10.25000100000000
H           27.32999999999999       18.11000100000000       11.34000000000000
H           27.95000100000000       18.05000100000000        9.74000100000000
H           26.70000100000000       17.07000200000000        7.93000000000000
H           25.10000200000000       16.30000100000000        8.24000100000000
H           25.20000300000000       18.06000100000000        8.14000000000000
H           23.18000000000000       15.86000100000000       11.36000100000000
H           23.59000200000000       15.90000100000000        9.66000000000000
H           24.57000000000000       15.03000100000000       10.79000000000000
H           24.56000100000000       19.38000100000000       10.41000000000000
H           23.42000000000000       18.42000200000000        9.55000000000000
H           23.22000100000000       18.48000000000000       11.30000000000000
H           23.97000100000000       19.39000100000000       13.69000100000000
H           22.86000100000000       18.63000100000000       14.80000000000000
H           22.87000300000000       21.24000200000000       14.86000100000000
H           24.53000100000000       21.11999900000000       15.48000100000000
H           20.94000100000000       21.32000200000000       15.87000100000000
H           20.21000100000000       22.85000000000000       16.29000100000000
H           21.46000099999999       22.87000300000000       15.14000000000000
H           20.74000200000000       19.94000100000000       20.86000300000000
H           19.42000200000000       20.33000000000000       21.94000100000000
H           18.64000100000000       19.28000100000000       19.85000200000000
H           17.91000200000000       22.24000200000000       19.75000199999999
H           17.10000000000000       21.08000000000000       20.85000000000000
H           16.66000200000000       20.84000000000000       16.73000100000000
H           17.57000200000000       22.12000100000000       17.46000100000000
H           19.19000200000000       20.31000100000000       16.53000100000000
H           18.46000100000000       19.11000100000000       17.57000200000000
H           21.98000100000000       22.77000200000000       24.70000100000000
H           20.41000200000000       23.34000000000000       25.59000000000000
H           21.16000200000000       21.41000000000000       26.78000300000000
H           21.41000000000000       20.40000200000000       25.28000100000000
H           18.76000000000000       21.23000100000000       26.38000100000000
H           19.38000100000000       19.65000200000000       26.30000100000000
H           13.60000000000000       17.73999999999999       17.60000000000000
H           14.90000200000000       19.74000200000000       17.19000100000000
H           16.93000000000000       19.11000100000000       21.02000000000000
151
 energy: -221.243854020764 gnorm: 0.170423407919 xtb: 6.7.1 (edcfbbe)
C           10.91229713085205       15.08031431842133       23.22387554832924
N           12.50094698012959       12.78497277565017       22.39927953692295
O           10.69174709509930       14.12557949254805       20.99960267439763
C           11.51576273329311       14.85717968979383       21.85553477625451
N           13.99247263416881       16.04801652237629       19.82364590073306
O           16.84427025009610       19.62197788202100       23.44209131401236
C            9.35307013030689       14.59113729575140       20.86020940828966
N           19.01991836485927       21.85790849293581       23.62865232659538
O           26.38304990867135       16.81519499475768       15.29284617445651
C           12.78903361893376       13.99840787866682       21.99257660503676
N           20.36560434893170       22.34159249755763       23.66012422362249
O           23.74212437824539       21.96411501427776       18.56246785514523
C           13.50381964692133       12.01106361340269       22.79038557720997
N           21.11036405754215       22.51567013824048       20.07578218479012
O           19.49265312135267       23.68061302285037       19.05021527601551
C           14.82989560219005       12.39102440055597       22.79440668544994
N           22.10361213871098       22.60163817761557       17.16322854568252
O           19.53273903589725       20.62657118233787       18.56022653853148
C           15.16039277346132       13.60735897644355       22.22645881345750
N           24.74250320805804       18.41914118472216       15.39390385011624
O           22.29905284586155       22.28827582595379       22.50742430669365
C           14.13398423275152       14.45503455270836       21.77582864777262
N           26.02697670310472       17.17461551900468        9.93401732194566
O           16.66541196481391       20.90691802723447       25.26925338543242
C           14.50508324357529       15.69729329030593       21.09003646844996
N           16.69711172563123       20.82297432107768       18.84811710527020
C           13.35552742031992       15.10746525255453       18.91803746553828
C           14.28439664963869       13.95445528847057       18.46721603453333
C           15.38822892601853       16.68033138482676       21.50464332384906
C           16.02953345875037       16.85374327103606       22.86216359582390
C           15.31607715980102       17.74238193513515       23.93403949439992
C           16.04906701271824       17.41941611287735       25.24355891593594
C           13.83735200258566       17.34911221757060       24.11084823034287
C           15.43233670861596       19.25387602359183       23.60206185842089
C           17.36108846169678       20.37463386100633       24.43534135152917
C           18.87701599681949       20.57910083836207       24.39168926158747
C           21.06343217362775       22.24015894946244       22.50029188312607
C           20.30420985072326       22.07379998671622       21.17132843419875
C           20.64056508234285       23.27854182203335       19.06397094809417
C           21.78516701205334       23.69406672943985       18.06914107222085
C           21.41355643722037       25.00867064264949       17.44270787130227
C           22.52624399484609       25.51927026691096       16.55123331796469
C           21.21204260691580       26.14447984153378       18.43592936745734
C           23.03141144695255       21.73836881980804       17.58135686186118
C           23.26427667359817       20.40898857968560       16.88010864826736
C           24.42179561046821       19.64390047378385       17.49268970735646
C           24.54275929219611       18.27225497884823       16.82405930546109
C           25.58002815897569       17.57628840625785       14.75666565669908
C           25.45702881805811       17.55314992327860       13.33222408379213
C           25.27350040073156       17.37757834110644       12.15692010843920
C           24.83822752634073       17.26943658610365       10.76599094330340
C           27.05356826882407       18.17605997638202       10.30373733847966
C           25.74717862510091       17.17968269846399        8.49278532541488
C           24.00452573940202       15.94392508273007       10.64084643727792
C           23.92474705837390       18.48601161601764       10.50623598905783
C           23.73366376291293       19.24266889371460       14.70218839925659
C           23.59365133327243       20.58886547118601       15.39826881203546
C           21.16497022604941       22.38901312021507       16.06430782496525
C           19.87287250493817       20.60340708403234       20.99584961803984
C           18.91294443096828       20.37257076429951       19.85432305023799
C           17.63847849413469       21.20838004213615       19.92474755519125
C           17.33926921072868       21.01805921802390       17.57552966742086
C           18.62899024167471       20.21056505513577       17.48820643208369
C           20.94906406528478       22.50762080842336       24.97365247144860
C           20.86509200579967       21.20749889530370       25.76006625805466
C           19.44707612141869       20.65922204872998       25.81433576629251
C           15.50214111155036       17.63145324851086       20.43728199309950
C           14.59909533652667       17.22765142717930       19.44030212903118
C           14.34628848915118       18.01389373386278       18.31037263326797
C           15.07620266630723       19.16771457401450       18.12359583499173
C           15.99965109380347       19.60725237928093       19.08755567460191
C           16.19312301654525       18.82430506316249       20.25817294310592
F           22.07765400660797       19.69256543495739       17.07640406903051
H           11.35210780857667       15.91357701135926       23.76677167551176
H            9.86094031684383       15.35439847430636       23.04769649017858
H           10.88373721285917       14.15660403860688       23.77395955690436
H           11.79354339782736       15.79564691443329       21.39951134201465
H            9.29605582618918       15.69384952319342       20.76172547188125
H            9.03957371436098       14.07765294414262       19.94404222282731
H            8.75180011426364       14.26070098637025       21.70858163618311
H           13.23861383514851       11.04538804702453       23.15537311144013
H           15.53598048663687       11.69607806196012       23.20683252956610
H           16.20063205573269       13.93550004180564       22.14088696153581
H           12.48368041076634       14.69407822303249       19.39765504518144
H           13.09656929432389       15.71645873044162       18.05176443926453
H           14.50637220447735       13.30270075817039       19.31869314284693
H           13.78220027186309       13.37425400691748       17.68575816057855
H           15.20844713612452       14.36074348032040       18.02149527479821
H           16.10057336373717       15.86893996763484       23.38070505549183
H           17.05549016378288       17.22958561722998       22.77396715992868
H           15.83614040555000       16.39563166154236       25.51548673374258
H           17.13599652191394       17.54505865244115       25.19619327407667
H           15.67701178976757       18.12966027330290       26.00833425689429
H           13.45027794330323       17.79853432135692       25.02217920741564
H           13.25645705912249       17.71488660881566       23.26499553980567
H           13.67727176072546       16.24640581497088       24.13079518296640
H           15.09146179732345       19.92636357998641       24.38815614927772
H           14.96251397113652       19.46622071606840       22.64220893244721
H           19.34093291142231       19.79704608587534       23.79165032564689
H           18.46960398847341       22.59547673674423       24.11748856034643
H           19.42078218003748       22.72301215083365       21.19764220127108
H           22.08849184585007       22.30165600993896       20.14658108446443
H           22.67362875581681       23.91636825550908       18.64043647979679
H           20.44802371788354       24.89011298564670       16.96198942904623
H           23.44105175640458       25.67766944284410       17.09262251754715
H           22.75881164827262       24.84247611906525       15.68564259922526
H           22.21367034670623       26.46232786148565       16.12900163668134
H           20.35651962937745       26.00598308494587       19.12437205696106
H           22.12547004385390       26.39091369812105       18.96786708919337
H           21.01549519181899       27.02348188027073       17.82800756396104
H           25.34403378054321       20.24273371368134       17.38779624694119
H           24.28918219862995       19.47781388160134       18.56604949738794
H           23.58152262066215       17.69685618643565       17.00086636839729
H           25.38626044590455       17.67286225029532       17.18002474343631
H           26.69606519813113       19.18248354926333       10.22469217262612
H           27.32979307170409       18.08009380025445       11.35081356381025
H           27.94809396240623       18.03892828494837        9.72217025646659
H           26.68899287534972       17.07415830923759        7.94333951306886
H           25.11623556834268       16.30595596239565        8.24489773185754
H           25.21201349596278       18.06623825896504        8.14418779846135
H           23.18545547084426       15.88396656198903       11.36330427129980
H           23.58098114939536       15.90201389115570        9.65065916857637
H           24.59412289358078       15.04606150461266       10.79206321347124
H           24.54696024484000       19.38241721534232       10.43015255751732
H           23.41496531254694       18.40675802082366        9.54789146800015
H           23.21169154779174       18.50053749208892       11.30263002655035
H           23.98726680711244       19.38329006986115       13.67619164977239
H           22.82760405075675       18.64573299288663       14.79540413796737
H           22.87631088651555       21.22176105338859       14.86435697549371
H           24.54057897784395       21.12034920115613       15.45105183763661
H           20.95359703158692       21.32863324219540       15.87978791246883
H           20.20563457057764       22.84725598058876       16.30958831511525
H           21.47834475610950       22.87016908804247       15.14246208006798
H           20.74748214345042       19.95626467211974       20.85612587820230
H           19.40398019174195       20.31997547783165       21.92956861405465
H           18.64492291978382       19.28863092568594       19.84807371450817
H           17.90239187034540       22.24632670344612       19.74906246515029
H           17.10707196329334       21.08861815642354       20.86136423438792
H           16.66288870057927       20.81992931266852       16.73557083167866
H           17.57794902015467       22.10549473989708       17.47502478852940
H           19.18474650502408       20.32953975802569       16.54688840040867
H           18.45140311593020       19.12198138296931       17.58532565081645
H           21.98217529508143       22.77732934576031       24.72880163970691
H           20.42712315716012       23.31783607454655       25.55149185988005
H           21.18148300677870       21.40083810908714       26.78119622992449
H           21.43937763980479       20.41480542047178       25.28475059984803
H           18.75428049521699       21.25823629023600       26.39152708093933
H           19.39656923407750       19.65944688547231       26.28506934639860
H           13.59937939766946       17.73160366746757       17.59353492904791
H           14.90231541473625       19.73899184731332       17.21207605809880
H           16.91394056890924       19.11532969662922       21.01406706062365
151
 energy: -221.291307047381 gnorm: 0.050227698634 xtb: 6.7.1 (edcfbbe)
C           10.89323619624353       15.08812565875935       23.21816497224126
N           12.51956462310208       12.79567974196640       22.42727074987797
O           10.69680686557647       14.13059379082807       20.97942623366195
C           11.54395782662022       14.85833023881546       21.84927629574257
N           14.00503106263841       16.03233687541264       19.83732135223619
O           16.85768018316852       19.60972252832665       23.46950164847619
C            9.36051865574589       14.58289326725285       20.84889503673790
N           19.01159984825696       21.87249558001291       23.64256645479584
O           26.38281644669515       16.82476768398674       15.31693447437995
C           12.80104623690155       14.01428677030919       21.99459748169679
N           20.34840992463393       22.31722420300652       23.64135768138874
O           23.73925383698964       21.98751295093489       18.58023097265080
C           13.50651903906633       12.00428916351382       22.79637365440188
N           21.11980603288588       22.52745308665063       20.09273662590430
O           19.50517585625894       23.66877816974039       19.00355044547350
C           14.83272480356967       12.39183179451939       22.78696043986663
N           22.07794128791144       22.60102735088045       17.17865228842548
O           19.52567255412619       20.60784220408896       18.55415985788225
C           15.14881146715505       13.61907274099866       22.22660005470751
N           24.74583431253585       18.41746354491784       15.39247547519316
O           22.29746263768973       22.30722983147992       22.50697109081744
C           14.12344657539606       14.46124572071618       21.77452650759173
N           26.03780450674653       17.17972885080704        9.92430868982984
O           16.66523872000420       20.90770350542705       25.28042873946174
C           14.49735142852687       15.71462066331921       21.09835610337881
N           16.70017870836090       20.80504273706505       18.86608574661120
C           13.36612053047746       15.11066965919455       18.92100882031803
C           14.28215703072319       13.96855503145638       18.46757918170555
C           15.37602616994089       16.69857448852802       21.52039429479931
C           16.02647359602566       16.83801656478907       22.86637584619946
C           15.32729700610463       17.73177630814429       23.92726536604788
C           16.04133551128227       17.43722641383703       25.25436633330220
C           13.84437750409555       17.35850172941951       24.09282427782075
C           15.45636112307146       19.23732910119177       23.59064893765182
C           17.34768955762358       20.37411856253690       24.43491814980466
C           18.85370822033846       20.59420408259274       24.37751128426893
C           21.07462758394896       22.22906303284024       22.50185251398257
C           20.29651712808484       22.07307230358989       21.18544697732408
C           20.67074213966324       23.29522232088108       19.09453269765754
C           21.77393130684361       23.70340376424977       18.09476406720974
C           21.41112336344400       25.02640705678076       17.42846433192317
C           22.52613904298266       25.50838314285170       16.50827635658674
C           21.20510820680129       26.15949664608724       18.43677375793692
C           23.02930644442138       21.74791303772501       17.59869958981649
C           23.26179557894953       20.41601025846702       16.87306509364792
C           24.42260395813901       19.63313195021528       17.50181970986856
C           24.53803495888659       18.27333605596115       16.81683666115271
C           25.57954601055886       17.57612026929402       14.75581805601007
C           25.43679624113696       17.55925713821096       13.32874598031442
C           25.25484733493814       17.36224914033052       12.15577552067329
C           24.83940193515746       17.24688721687639       10.76482550830850
C           27.04252985436542       18.16997392595817       10.30086615703764
C           25.74930532197937       17.17379302360731        8.49898409216868
C           24.00708069240816       15.94943329407329       10.63630054504389
C           23.93243867910560       18.47425412175702       10.49403684609030
C           23.74064894756320       19.22491928801733       14.72030236992495
C           23.60108449753354       20.58606510346791       15.39745622164744
C           21.15222692106819       22.38887526682468       16.07692231786851
C           19.87630561323001       20.60606802365847       20.99045831059436
C           18.91136903100714       20.36615816543682       19.83015667433797
C           17.62824676461428       21.20372369131954       19.91437099477940
C           17.33892269357059       21.02185085494767       17.57526587802063
C           18.64053256963083       20.21097973738420       17.50418580193550
C           20.94894142698043       22.49417457704943       24.95600290279976
C           20.85381876338625       21.19505472940035       25.76247454025812
C           19.42261595917017       20.65962336804163       25.80104242983573
C           15.46932490038821       17.65160079373309       20.44673385368907
C           14.58532655287565       17.21460965820397       19.43576723121938
C           14.35443767204877       17.99688475581011       18.30935928227565
C           15.07678387800366       19.15809408352064       18.13461629102320
C           16.02178031922370       19.58627971932890       19.08920048651654
C           16.19243490521842       18.83298676723004       20.24916868937742
F           22.07922323925488       19.68000553322350       17.05244980451254
H           11.37424028812122       15.89299780555383       23.76700459120597
H            9.85984008495339       15.36975279724437       23.06091891635059
H           10.90196687295356       14.15828214537650       23.78395983006013
H           11.79009371450478       15.82818330821686       21.39328852437312
H            9.30364088917564       15.67234587769873       20.75077647595960
H            9.01888765037792       14.09305262218112       19.94272244775127