151
 energy: -221.037717369200 gnorm: 0.334625365123 xtb: 6.7.1 (edcfbbe)
C            8.77000000000000       16.31000100000000       20.71000100000000
N            9.27000000000000       13.82000100000000       22.32000200000000
O            9.61000100000000       14.31000100000000       19.40000200000000
C            9.95000100000000       15.31000000000000       20.48999999999999
N           13.30000000000000       14.71000100000000       20.29000100000000
O           14.82000200000000       19.91000000000000       23.12000099999999
C            9.38000000000000       14.93000000000000       18.13000100000000
N           18.26000000000000       21.47000100000000       22.42000200000000
O           24.99000200000000       15.44000100000000       12.89000000000000
C           10.29000100000000       14.57000000000000       21.73000100000000
N           19.52000000000000       21.32000200000000       23.09000000000000
O           24.24000000000000       19.26000200000000       18.31000100000000
C            9.58000100000000       13.14000000000000       23.44000100000000
N           21.90000200000000       20.88999900000000       20.08000200000000
O           21.98000100000000       23.07000200000000       20.10000000000000
C           10.85000000000000       13.25000000000000       24.01000000000000
N           23.30000100000000       21.18000000000000       17.63000100000000
O           19.16000200000000       20.28000100000000       18.34000000000000
C           11.91000100000000       14.00000100000000       23.44000100000000
N           23.91000000000000       17.23000000000000       13.79000100000000
O           21.77000000000000       21.04000100000000       22.87000300000000
C           11.63000100000000       14.62000000000000       22.18000200000000
N           24.98000100000000       18.42000200000000        8.36000100000000
O           15.68000000000000       21.21000100000000       21.35000000000000
C           12.76000000000000       15.26000000000000       21.41000000000000
N           17.26000000000000       18.39000100000000       19.00000000000000
C           12.87000100000000       13.35000000000000       19.62000100000000
C           13.28000100000000       12.24000100000000       20.53000300000000
C           13.46000100000000       16.40000200000000       21.69000200000000
C           13.46000100000000       17.14000100000000       23.05000100000000
C           12.75000100000000       18.55000100000000       22.98000100000000
C           12.40000000000000       18.89000100000000       24.41000200000000
C           11.39000000000000       18.45000100000000       22.13999900000000
C           13.56000000000000       19.72000100000000       22.36000100000000
C           15.81000100000000       20.64000100000000       22.42000200000000
C           17.18000000000000       20.68000000000000       23.15000200000000
C           20.66000000000000       21.08000000000000       22.31000100000000
C           20.60000200000000       20.82000000000000       20.73000100000000
C           22.63000100000000       22.04000100000000       19.84000000000000
C           23.84000000000000       21.98000100000000       18.87000100000000
C           24.41000200000000       23.38000100000000       18.43000000000000
C           25.56000100000000       23.25000000000000       17.32000200000000
C           24.95000100000000       24.20999900000000       19.61000100000000
C           23.72000100000000       19.80000100000000       17.34000000000000
C           23.13000100000000       18.89000100000000       16.17000200000000
C           23.83000200000000       17.48000000000000       16.32000200000000
C           23.50000200000000       16.55000100000000       15.06000000000000
C           24.79999900000000       16.67000000000000       12.91000000000000
C           25.31000100000000       17.41000000000000       11.81000100000000
C           25.71000100000000       17.95000100000000       10.77000000000000
C           26.04000100000000       18.57000200000000        9.47000000000000
C           23.59000200000000       18.70000100000000        8.79000100000000
C           25.14000100000000       17.18000000000000        7.48000000000000
C           26.29000100000000       20.10000000000000        9.63000100000000
C           27.35000200000000       18.03000100000000        8.99000100000000
C           23.26000200000000       18.60000200000000       13.66000100000000
C           23.61000100000000       19.51000000000000       14.83000000000000
C           22.24000200000000       21.85000200000000       16.76000200000000
C           19.97000100000000       19.38000100000000       20.45000100000000
C           19.66000000000000       19.11000100000000       18.98000100000000
C           18.70000100000000       17.85000000000000       18.99000000000000
C           16.89000100000000       19.64000100000000       18.35000000000000
C           17.83000200000000       20.74000200000000       18.65000200000000
C           19.59000000000000       21.92000200000000       24.39000100000000
C           18.46000100000000       21.29000100000000       25.35000000000000
C           17.10000000000000       21.23000100000000       24.61000300000000
C           14.45000100000000       16.57000000000000       20.67000200000000
C           14.35000000000000       15.48000100000000       19.79000100000000
C           15.14000000000000       15.38000100000000       18.68000000000000
C           16.08000000000000       16.41000000000000       18.38000100000000
C           16.26000000000000       17.48000000000000       19.29000100000000
C           15.54000000000000       17.50000200000000       20.52000000000000
F           21.80999900000000       18.56000100000000       16.17000200000000
H            7.80000000000000       15.82000000000000       20.63000100000000
H            8.89000000000000       16.84000200000000       21.66000200000000
H            8.64000000000000       17.01000000000000       19.88000100000000
H           10.75000000000000       15.92000100000000       20.07000200000000
H           10.06000000000000       15.74000200000000       17.88000100000000
H            9.61000100000000       14.22000000000000       17.33000000000000
H            8.33000100000000       15.22000100000000       18.07000000000000
H            8.76000000000000       12.62000100000000       23.93000000000000
H           11.01000000000000       12.78000100000000       24.97000100000000
H           12.88000100000000       14.12000100000000       23.92000200000000
H           11.78000100000000       13.34000100000000       19.52000000000000
H           13.42000000000000       13.17000000000000       18.69000100000000
H           14.31000100000000       11.93000000000000       20.32000000000000
H           13.21000100000000       12.56000000000000       21.58000000000000
H           12.53000100000000       11.46000000000000       20.34000200000000
H           13.01000100000000       16.51000000000000       23.81000100000000
H           14.50000000000000       17.33000000000000       23.33000200000000
H           11.70000100000000       18.16000200000000       24.82999999999999
H           13.27000000000000       18.86000100000000       25.06000100000000
H           11.99000000000000       19.90000200000000       24.54000300000000
H           10.82000000000000       19.38000100000000       22.28000300000000
H           11.55000100000000       18.31000100000000       21.07000200000000
H           10.74000000000000       17.63000100000000       22.47000100000000
H           13.00000100000000       20.65000200000000       22.22000100000000
H           13.85000100000000       19.45000100000000       21.34000000000000
H           17.52000000000000       19.64000100000000       23.14000100000000
H           18.06000100000000       22.45000100000000       22.25000200000000
H           19.94000100000000       21.60000000000000       20.34000200000000
H           22.18000200000000       20.14000100000000       19.45000100000000
H           24.63000100000000       21.42000200000000       19.38000100000000
H           23.60000200000000       24.00000000000000       18.04000100000000
H           25.15000200000000       22.72000100000000       16.45000100000000
H           25.77000000000000       24.27000000000000       16.99000200000000
H           26.47000100000000       22.76000000000000       17.67000000000000
H           25.50000199999999       25.10000200000000       19.29000100000000
H           24.13000100000000       24.49000200000000       20.27000200000000
H           25.63000100000000       23.57000200000000       20.17000200000000
H           24.90000000000000       17.68000000000000       16.23000000000000
H           23.46000300000000       17.00000000000000       17.23000000000000
H           22.46000100000000       16.22000100000000       14.91000100000000
H           24.10000000000000       15.65000100000000       15.20000100000000
H           23.22000100000000       17.79000100000000        9.28000100000000
H           23.60000200000000       19.52000000000000        9.52000000000000
H           22.85000000000000       18.92000000000000        8.02000000000000
H           26.08000000000000       17.32000200000000        6.94000000000000
H           25.25000000000000       16.25000200000000        8.03000100000000
H           24.34000000000000       17.06000100000000        6.74000000000000
H           26.40000200000000       20.59000000000000        8.66000100000000
H           25.55000100000000       20.67000200000000       10.20000100000000
H           27.23000000000000       20.27000200000000       10.16000000000000
H           28.04000100000000       18.33000000000000        9.79000000000000
H           27.32000200000000       16.94000100000000        8.97000000000000
H           27.66000000000000       18.44000100000000        8.02000000000000
H           23.48000000000000       19.07000000000000       12.70000100000000
H           22.19000100000000       18.51000000000000       13.46000100000000
H           23.20000100000000       20.48000100000000       14.53000100000000
H           24.69000100000000       19.70000100000000       14.86000100000000
H           22.66000000000000       22.57000200000000       16.04999900000000
H           21.57000000000000       21.14000100000000       16.26000000000000
H           21.58000000000000       22.47000100000000       17.37000099999999
H           20.55000100000000       18.54000100000000       20.86000300000000
H           19.00000000000000       19.33000200000000       20.94000100000000
H           20.60000200000000       18.74000200000000       18.56000100000000
H           18.85000000000000       17.27000000000000       19.91000000000000
H           18.89000100000000       17.22000100000000       18.12000100000000
H           16.84000200000000       19.52000000000000       17.27000000000000
H           15.92000100000000       19.92000200000000       18.78000100000000
H           17.77000000000000       21.01000000000000       19.71000100000000
H           17.69000100000000       21.67000000000000       18.10000000000000
H           20.58000200000000       21.90000200000000       24.87000300000000
H           19.38000100000000       22.99000000000000       24.31000100000000
H           18.36000100000000       21.80999900000000       26.30000100000000
H           18.76000000000000       20.24000200000000       25.49000000000000
H           16.67000000000000       22.23000000000000       24.52000000000000
H           16.45000100000000       20.62000099999999       25.24000200000000
H           14.88000000000000       14.61000100000000       17.95000100000000
H           16.60000000000000       16.30000100000000       17.43000000000000
H           15.81000100000000       18.07000000000000       21.40000200000000
151
 energy: -221.168057501616 gnorm: 0.186514522832 xtb: 6.7.1 (edcfbbe)
C            8.75624535698869       16.30381469038905       20.69871720123775
N            9.30389604911350       13.84115437110536       22.31594619226679
O            9.61675760084627       14.33196930906843       19.40222914610464
C            9.92716051934985       15.31577941531709       20.47228051364488
N           13.28655986750468       14.69622538314710       20.26215109817035
O           14.84057890732521       19.93159612829691       23.08540529688822
C            9.38221644416002       14.92579390012452       18.12937534962273
N           18.25757690214594       21.44359731573854       22.41462463845812
O           25.00645669170740       15.45332379644450       12.91712951964607
C           10.29881655857621       14.55581536133913       21.71401002650686
N           19.52281476319335       21.32056001180425       23.06463315458010
O           24.27027672570869       19.26175899279139       18.29956163718920
C            9.59784654244880       13.17384400437729       23.43197088836875
N           21.90460391590116       20.88359967466230       20.08595776526376
O           22.01257772998089       23.10142107889720       20.11924907987863
C           10.85797425027663       13.26362946048271       24.01620184092917
N           23.29107679762931       21.18034523095505       17.61063615829087
O           19.18256694891390       20.27072545240669       18.32938658533593
C           11.89111703374544       13.99840489329512       23.42726266609313
N           23.90965168626427       17.24814765755033       13.79117161622482
O           21.75875666303490       21.04544906604775       22.86939026051715
C           11.63128900240011       14.61129647517786       22.17651811491178
N           24.98170865783953       18.41628293652995        8.35872220515609
O           15.66868642866125       21.19662596004114       21.36162008750003
C           12.76024647518419       15.24958733030245       21.40849351377414
N           17.26992987650675       18.38777357745442       19.02747752801956
C           12.87490778616725       13.37379175138267       19.63654384159958
C           13.27651167430268       12.23479972492449       20.53937362947096
C           13.47423063189196       16.39421381544782       21.70948564680981
C           13.46209697579125       17.16274393027548       23.02248688970544
C           12.73187047356927       18.55242058898937       22.97967623997539
C           12.39682892727417       18.89469216396523       24.42281558392461
C           11.39911743359420       18.45674145251795       22.14871717725231
C           13.58085497551145       19.69700195659556       22.35353413541049
C           15.82008405600755       20.65543732162701       22.43089432655460
C           17.19121900903027       20.68496789444482       23.16145022469261
C           20.66488993217481       21.07655056685869       22.30937756458986
C           20.60151134234224       20.80534308169120       20.74673966410962
C           22.57397744484192       22.04679333998163       19.78469138095420
C           23.81219931150551       21.96916314570366       18.83889201806738
C           24.40715874223243       23.36822525098249       18.42356182228555
C           25.53103839777586       23.25179149531968       17.32836465226487
C           24.94977906100168       24.18509422653270       19.61262483278181
C           23.63680741835998       19.80981978218966       17.39667747235257
C           23.16124834289963       18.90467010947884       16.16777359298039
C           23.82652808391453       17.49063287367609       16.28363292303436
C           23.51261505012511       16.56650225052591       15.04758965898871
C           24.76136474770165       16.67369414197455       12.88875996886405
C           25.28965861376585       17.43360093862137       11.78525245170048
C           25.68356007272467       17.95558592352878       10.76165759829197
C           26.02099467279160       18.58365969211326        9.45923656071973
C           23.60255531007760       18.67621471861275        8.80324456243765
C           25.14677749933254       17.19723436381288        7.49625836365754
C           26.28580228142571       20.10566836882963        9.63617348665502
C           27.35346020270804       18.02259822697162        9.00164200921225
C           23.27147480434960       18.58852014439962       13.64498757262043
C           23.60821501454480       19.50797508616164       14.81598547611874
C           22.25011115381903       21.85390803018138       16.77295553609147
C           19.96160851753839       19.39791872446857       20.47210314326064
C           19.65494760285483       19.10889171916094       18.99723319663916
C           18.67844220513541       17.88185691643050       18.97732379373657
C           16.88712826538307       19.62456056640531       18.35761767396606
C           17.85803147893174       20.72525031768264       18.66531247474414
C           19.57318131846861       21.92302580789074       24.38768937172853
C           18.47073487455674       21.27605202674611       25.31299852150896
C           17.09701060101955       21.23448430333465       24.60903515140007
C           14.46590507701170       16.56419307601001       20.68938159669974
C           14.32343867838268       15.48480809887027       19.78828189578723
C           15.11940512828996       15.38977241983334       18.66417694033604
C           16.05311842297170       16.39540157963144       18.39091459302738
C           16.26495909053430       17.44860576456421       19.30774990670842
C           15.53584725545856       17.48058603302566       20.51179611905332
F           21.81636197140770       18.61363102985677       16.16983563337792
H            7.79630202972627       15.79612875588098       20.65820375262488
H            8.88526022784478       16.82805052364896       21.64550478569564
H            8.66869671970521       17.02082832873703       19.88089544915474
H           10.75972055909164       15.91027790729757       20.07981126521368
H           10.05657803158364       15.75346397746560       17.90281884301437
H            9.60735739556051       14.19756739613601       17.34510096440457
H            8.33527451605515       15.22629901237602       18.06350868583159
H            8.78072271885888       12.62809032868823       23.90673895319435
H           11.01757088682895       12.77859426618218       24.96906897785233
H           12.86126699590934       14.10853836398487       23.90639844843386
H           11.78937764016839       13.36367837796877       19.51474930884374
H           13.40191997173285       13.21113011039965       18.69313193917160
H           14.29927141427469       11.92140063465906       20.33000274723097
H           13.20862184829016       12.54470284518194       21.58247307323168
H           12.55180845032922       11.44150723599750       20.35339264348205
H           13.00398084303752       16.53152033247842       23.78854596505710
H           14.49871534310813       17.33294810383885       23.32398312978929
H           11.69324902752722       18.16702580143317       24.82818223857545
H           13.28063891604723       18.85947561165504       25.05619245387540
H           11.98224045576904       19.89777108340673       24.53362011851396
H           10.82746640206030       19.37818411063145       22.28030969563193
H           11.56612954786065       18.31301888334268       21.08129947508203
H           10.76299974751835       17.63346839088952       22.48165878576318
H           13.01088715375355       20.63317544371299       22.25149758953594
H           13.85753905252902       19.43794425898644       21.32916763711227
H           17.52806778950768       19.64259149051937       23.14981063009967
H           18.04490426472685       22.43021192376008       22.26021463522508
H           19.94531451809674       21.58792442630706       20.34037366947372
H           22.17776564658956       20.12086930910758       19.47745158898876
H           24.60737180311769       21.40724195164293       19.35230323815072
H           23.59784372394441       23.98367924649989       18.02312553998565
H           25.15162112171844       22.71525457363999       16.45765164162735
H           25.77151560025850       24.26270499819027       16.99719086304392
H           26.44257227323510       22.76529571460439       17.67899729197676
H           25.48497090520087       25.08091832376347       19.28495183976628
H           24.13265914448193       24.48512667287869       20.26713043690298
H           25.63923993814101       23.56918479934111       20.18224158028651
H           24.90076011068395       17.66638231906527       16.24950265999471
H           23.47619067741000       17.00996727124643       17.20406698037893
H           22.46651881070152       16.24691804929610       14.93155716319232
H           24.10427848409762       15.65741318669605       15.18440498719749
H           23.20681953425279       17.78346033939878        9.30000798430637
H           23.60571009496115       19.50928027197283        9.51182349645403
H           22.88934241301141       18.91857898942282        8.00870914852574
H           26.07412962910983       17.32508342560540        6.93689410976513
H           25.23697433930147       16.25756829466231        8.04600322163179
H           24.33942726717235       17.08476200651155        6.76669463986181
H           26.39144864634246       20.57832853934136        8.66017050918671
H           25.53426734912642       20.65753522561831       10.19793557371354
H           27.22755073285739       20.26294111150891       10.16405624022218
H           28.06035005419989       18.31827889151910        9.77833541792246
H           27.32803639184026       16.93643021249181        8.96433431828958
H           27.65715044036979       18.43463356886296        8.03726262004089
H           23.52707534348569       19.06100252084994       12.69397797377625
H           22.18752092064978       18.48106503811051       13.50019767839026
H           23.18147085471640       20.47967812964984       14.55546827357091
H           24.68739269182271       19.68550633853319       14.86441829125972
H           22.67623340594690       22.55273681782828       16.04871519895923
H           21.59573072727801       21.13470203227537       16.27331071481436
H           21.58990219528097       22.46228276089562       17.39312645984017
H           20.56163310697300       18.56800443945883       20.86358436137541
H           18.99489483200630       19.35036902753490       20.96589482412443
H           20.58742179207843       18.76375703929459       18.53325980809126
H           18.83905482227345       17.28659167992067       19.88817597613628
H           18.87691212920332       17.23649362498192       18.11434406524275
H           16.83213377370091       19.50859583448711       17.26765703604615
H           15.91392191214505       19.91138208546659       18.76977717897000
H           17.78143011577545       21.00481648524273       19.72224622074301
H           17.69795865936694       21.64557568936933       18.09245147014919
H           20.56648089739432       21.87292275679485       24.85473485477005
H           19.36830705026970       22.99711626020395       24.30353557044291
H           18.37317846353771       21.80471364129098       26.26638100550536
H           18.76692303073091       20.23996096236011       25.49546301624905
H           16.67048640439428       22.23547106494633       24.52708407183708
H           16.44155185115158       20.62065223339937       25.22784039103166
H           14.90146867249344       14.60592160137986       17.94686004894692
H           16.59418337549459       16.31017585001949       17.45113276541232
H           15.80348804529599       18.08965665127579       21.36841583105949
151
 energy: -221.238588827526 gnorm: 0.070871783709 xtb: 6.7.1 (edcfbbe)
C            8.74799917200461       16.29317496708221       20.68668665848928
N            9.34185295640566       13.86390732493872       22.30636748073378
O            9.63739608426927       14.35197006504494       19.40574163056376
C            9.91115841717429       15.31848770037001       20.44547554951546
N           13.27235391018547       14.68620524854681       20.23518313718549
O           14.86659373244290       19.94404756127113       23.05657251461211
C            9.38394728636902       14.92342688963399       18.13330986170869
N           18.24934250207212       21.41451453959410       22.40183085716331
O           25.01271727233519       15.47289267237560       12.93952861885405
C           10.30702428665052       14.55043214937080       21.69854114691142
N           19.52149041753257       21.32148121313177       23.02908401894658
O           24.27421471040317       19.26538078661065       18.28049336931641
C            9.61724881189660       13.20453666398064       23.41882320450490
N           21.90562772362103       20.88701411810132       20.08995557613661
O           22.04338378095622       23.12263273670070       20.11992493974133
C           10.86649546986092       13.27728724130696       24.02283609009429
N           23.28483335299681       21.15909005295753       17.58685074060965
O           19.19908732981435       20.26373563195553       18.32122953976184
C           11.87580021790447       13.99961421063339       23.41004113764273
N           23.91600756910120       17.27038423240314       13.79572340820746
O           21.74911626576078       21.05289776650293       22.87018409607769
C           11.63659757807200       14.60871795637127       22.16905957684576
N           24.98725422915964       18.41063512137154        8.36698950349287
O           15.65228993749602       21.18999878337231       21.36927434189122
C           12.76556746277547       15.24251395637478       21.40874400449467
N           17.28034542569647       18.38988833464099       19.06856234073206
C           12.87985029393916       13.40911176840170       19.65854557118413
C           13.27321371686419       12.23486408232603       20.54908686015016
C           13.49965465130104       16.37892886283377       21.73118156494557
C           13.45216749480644       17.17441657564846       23.00040982105095
C           12.73061150888178       18.55517592915056       22.97400396476530
C           12.39749024985960       18.89959206104103       24.42946008677149
C           11.41796357492855       18.46668758817041       22.16131316865815
C           13.60589414827775       19.68584768261872       22.34791657001077
C           15.82881096611140       20.65155045906230       22.43375297474097
C           17.20004139681167       20.68580300573053       23.16774284314494
C           20.66780538689992       21.07340041866342       22.30515098408021
C           20.59327003343817       20.79549486821480       20.75801411676801
C           22.53130917030848       22.05216600134584       19.76637860494868
C           23.76686424925655       21.94672458554301       18.80330402638279
C           24.39200170347641       23.34892236133899       18.41109151041097
C           25.49852915942084       23.24722419547875       17.33927672229759
C           24.94202015227800       24.15107771930615       19.61025126616147
C           23.61976671869524       19.84064464884416       17.41412792610000
C           23.18682887472508       18.92441137945535       16.16290509066421
C           23.82393909557670       17.51022692708424       16.25474953955029
C           23.52259079798910       16.59709069382874       15.03720225046235
C           24.74314166524432       16.68160297468630       12.88986804979573
C           25.24291633273062       17.46361656053340       11.76727198787221
C           25.64797358625580       17.95779836964004       10.73982524241873
C           26.00929921183324       18.59370818192515        9.44355694437539
C           23.61894472563364       18.65359803948512        8.81572695251954
C           25.15178301139760       17.22010682341252        7.51923035642473
C           26.27780105247852       20.10886470940554        9.63858049884237
C           27.36127300270190       18.01328901599677        9.01192641169056
C           23.28368710586471       18.57438019885154       13.63851158973863
C           23.61137932611307       19.51370149807770       14.80672563752636
C           22.26265433556444       21.84427724642764       16.78716423037504
C           19.95451530894009       19.41541470953555       20.49282902459538
C           19.64414988388229       19.10836352704618       19.01384148913805
C           18.65054521071643       17.91487582012267       18.97275942159277
C           16.88596850886739       19.60492621134954       18.36770590146182
C           17.88410477584873       20.70914640814019       18.67667124123102
C           19.55197770149629       21.91752413132114       24.38130711531379
C           18.48027772032825       21.26749468345922       25.27754956142221
C           17.09837651193491       21.23671798612028       24.60206774702016
C           14.48222988699004       16.55299143368992       20.70336514026604
C           14.29872312597609       15.48479339132251       19.78777240125260
C           15.09805647033773       15.39668345383359       18.64976558920173
C           16.02726870542507       16.38068670923156       18.40101321853603
C           16.26693232324875       17.42061469367723       19.32363204659624
C           15.53353561186047       17.45841523871147       20.50287283703257
F           21.80904953330271       18.68275213998818       16.19058416715776
H            7.79704196638123       15.77126045118706       20.68558892464487
H            8.88153049113727       16.81459469115762       21.63148084044444
H            8.69217910429763       17.02628302887144       19.88390283150749
H           10.77448069021267       15.90736979167927       20.09345051973422
H           10.05204794445244       15.76590757655641       17.92353830713359
H            9.58925207909014       14.17417208889332       17.36669816303862