151
 energy: -221.320423200734 gnorm: 0.005078272688 xtb: 6.7.1 (edcfbbe)
C            9.62282980620335       17.19843626793337       21.71233891617015
N           10.11024412852811       14.95731455459458       23.39959360158856
O           10.30829845105067       15.26153990047688       20.35910074511623
C           10.69886213823481       16.16022838942922       21.40068553511736
N           13.83675002820488       15.16299123148321       20.87784078499335
O           16.05029284596909       19.80143353980416       23.50192425409053
C            9.12404279143850       14.50685546109156       20.56828888284441
N           18.73546152817723       21.84026759323269       22.35424146567496
O           27.60990888622575       18.14891502557523       13.49105946899872
C           11.11109695394433       15.38544766341376       22.63988516431738
N           19.90924722727752       22.41590125477191       22.84593181141931
O           25.02364363370953       21.68415089148617       17.29777937065462
C           10.36244555416680       14.22415552478043       24.47048754830862
N           21.93020784780422       21.39459986540833       20.08744211261571
O           20.99616657546341       23.40413635532163       19.77508864221782
C           11.64521855584134       13.87679078548527       24.85788616319168
N           22.79527833427400       21.44504275258693       17.46772848483969
O           21.43359293270912       18.54488950774347       19.71068048636029
C           12.69813614427433       14.32919948167559       24.08298826823194
N           25.46827916279614       18.17254272051912       14.24952034929942
O           22.13607985151510       22.68743755946666       22.60771942816544
C           12.45186220771680       15.09898588326022       22.94617073958223
N           26.13390926248062       20.03938438291615        8.79811105757060
O           16.19022278527235       21.21609352714015       21.77354748627660
C           13.60589493876433       15.57011579115465       22.17142765890179
N           18.88095112730585       17.32393656667779       20.11497789477760
C           13.14943459463849       14.11289245694886       20.17144215071847
C           13.89949244919531       12.78518273070586       20.27228527180396
C           14.63342807338193       16.38232748519366       22.60703353857515
C           14.76937762577020       17.04889312482790       23.93907549017153
C           14.10046130908919       18.43832175797841       24.05553365720278
C           14.27053769272750       18.95005963065184       25.48797290307542
C           12.61224326513956       18.35059087320934       23.71945654197701
C           14.73069347028266       19.42979715945659       23.07379619787179
C           16.65416020282156       20.72373331827686       22.77921859820798
C           17.97743747815980       21.15448186750549       23.38829584967990
C           21.08830047299199       22.16099032200309       22.25539302703168
C           21.01581346771137       21.08842745279333       21.16315869046827
C           21.80229967506832       22.54948577289866       19.42345502480061
C           22.74092626468543       22.69625054847651       18.22206927366935
C           22.46370660117525       23.91874012127281       17.31523000828934
C           22.85068012670672       25.19341380761007       18.06484370656731
C           21.02602767993178       24.01725649365190       16.80818761096070
C           24.00747267707137       21.02310716512097       17.07862887611765
C           24.16388326258098       19.68962472498299       16.31875004996166
C           25.60289911212537       19.18416411840531       16.46642032168338
C           25.83914747289538       17.92902463888800       15.62508938109447
C           26.40762211827253       18.33552060006873       13.29735891749219
C           25.89703655792862       18.72673647369690       12.00902344041648
C           25.58176003823885       19.10412279249938       10.90986597719023
C           25.03001652997002       19.56198318351172        9.63830368576978
C           26.96086872145796       21.04554272566907        9.43272221585275
C           25.75694422916678       20.44877767265523        7.46138371127486
C           24.35558981599494       18.34150964342312        8.98888613134061
C           23.95951993602218       20.62758915693649        9.96621519963548
C           24.08312852913281       18.54137031435647       14.08911046054969
C           23.79669824884551       19.84613127202450       14.83972683671563
C           21.52973424362974       20.80015915397040       17.16354018307802
C           21.32307612834612       19.73373010197538       21.79883445574463
C           20.82257631157608       18.53717110322225       20.98840531934248
C           19.29300134019111       18.50184318873974       20.85880140077968
C           19.54739358169802       17.27382777964937       18.82497882540180
C           21.06243187117288       17.37841714228092       19.01072904972316
C           19.76567046564904       23.33754067596729       23.96027045922901
C           19.04241164002850       22.62713442018440       25.10547123145732
C           17.71354421835671       22.05282140526548       24.61223146105254
C           15.56922727448138       16.46041017904654       21.53019577212926
C           15.03290152088421       15.69031824841156       20.47453681328067
C           15.71347059385050       15.58090961135358       19.27161423549522
C           16.94330343781861       16.18653247407966       19.15611681514614
C           17.55302236464827       16.88677985731898       20.22085150079448
C           16.82960965263197       17.04544727387548       21.39780595395592
F           23.32757517916469       18.71562994843659       16.87810066461023
H            9.28449746249206       17.65515434838148       20.78534290531732
H            8.78154908748221       16.72930251109391       22.21331430436769
H           10.03290183038478       17.96604349544547       22.36151689922515
H           11.57939017771362       16.65215307455247       20.97182225885567
H            8.28243500898013       14.97161064608582       20.04634841555422
H            9.30495709597993       13.51504650479072       20.14873770914843
H            8.89517403785459       14.41223144794766       21.63050310818076
H            9.49274594169029       13.90766876568529       25.02989156272396
H           11.81366263996095       13.26931040551791       25.73203626168399
H           13.71685172621557       14.07720566247259       24.33903165998873
H           12.14854038651058       14.00662338189804       20.58802148929338
H           13.04527962862285       14.41062940587632       19.12443990690869
H           13.99637124798916       12.48609145516996       21.31340522593702
H           13.35373794582195       12.01448275945864       19.73581803308994
H           14.89464744776081       12.87578075239210       19.84472051203026
H           14.33238277895885       16.41355655129093       24.71146248406233
H           15.83191505659964       17.16857197316374       24.15919515310118
H           13.76904149197229       18.28227986688423       26.18308603137586
H           15.32312871271854       19.00241113674769       25.75131388857590
H           13.83799204874067       19.94231467187852       25.59024316720933
H           12.12146052633306       19.30062293730166       23.91770315232655
H           12.47617022170243       18.10285300894249       22.67069659167768
H           12.13322638469666       17.58326480326311       24.32212203393555
H           14.12945415254600       20.34333379478720       23.01162058240185
H           14.79781841338847       19.00176637806505       22.06837585937063
H           18.53975364289227       20.26826915050332       23.70010644241643
H           18.14407213801680       22.54711570352376       21.91229288249678
H           19.99476106370473       21.11283614787471       20.77037034096797
H           22.57228554086719       20.67644061382773       19.79545696229626
H           23.74937495491848       22.84325698401896       18.63397653762357
H           23.13443982267093       23.81073274968792       16.45357557824585
H           23.90563275132036       25.17634075150144       18.32825607144904
H           22.66370503320345       26.06486143285345       17.44445802490833
H           22.26432734500561       25.28064236194973       18.97426680374807
H           20.78361909479747       23.20889658555382       16.12643576897309
H           20.33168053990138       24.00865059737821       17.64412407170919
H           20.89967958693622       24.95659991969526       16.27565666758559
H           26.27740030330550       19.98327992759089       16.15804062557955
H           25.79749477474618       18.96668416039763       17.51727596917475
H           25.23262119444990       17.10381451141867       16.00965267664749
H           26.89360105146770       17.65027296526693       15.65104108673794
H           27.27836436963106       20.69281228763344       10.41238159729765
H           27.84698332616782       21.19777234937250        8.81858900757025
H           26.45522470145134       22.01552791769134        9.55011855487016
H           26.67138989157194       20.65429967234090        6.90620100995802
H           25.23056650676325       19.64352552401200        6.95807918586989
H           25.13703036760825       21.35766151424051        7.43954818393113
H           23.69992021069219       18.64987156361542        8.17998053243440
H           25.11364620659743       17.66449083008466        8.60638076500626
H           23.76077636219024       17.81647616650416        9.73195327671261
H           24.38705306907592       21.43692645223216       10.55358872685175
H           23.54487013711898       21.03361418228271        9.04742699481219
H           23.15601694955116       20.17202698456894       10.53876520424230
H           23.85840194920771       18.65864934798314       13.02988647382334
H           23.46487377757701       17.74108988957391       14.50663215031526
H           22.74175335220594       20.08927848579021       14.73567207271757
H           24.39301380302723       20.65887036805540       14.42514726233293
H           20.73731046236005       21.36805757802190       17.64113893323264
H           21.34574968892842       20.78885785446203       16.08927345997892
H           21.50197869844665       19.78447480218450       17.55077256061657
H           22.40288358918610       19.65224212634501       21.93131188719022
H           20.85897657643161       19.69270811755194       22.78350699146147
H           21.13194943243955       17.61559362682389       21.51123949222488
H           18.93542215548175       19.41541838232683       20.35943320060070
H           18.87784740955299       18.47384936288953       21.86235642314550
H           19.35499321386835       16.31587834670901       18.34655738955561
H           19.20158612310368       18.08886038807548       18.16871410706572
H           21.56178974319419       17.42466266910095       18.04287481865997
H           21.42097455334452       16.49577238255309       19.55980376525177
H           20.76837146097625       23.65266305383108       24.24944094454865
H           19.19682460048752       24.21307228714099       23.62806240915648
H           18.86609962789134       23.33448014119810       25.91424747643507
H           19.67383576651901       21.82078469029787       25.48140241744042
H           17.04373143740251       22.86556627559294       24.32011851984985
H           17.23057385495888       21.46922084223508       25.39514395270261
H           15.29894352770496       15.04118559911206       18.43391735033399
H           17.43898341206962       16.10762142215732       18.20369470662809
H           17.22616617147448       17.59174976648618       22.23814527945032
