151
 energy: -221.321110767443 gnorm: 0.005282556586 xtb: 6.7.1 (edcfbbe)
C            9.68726493304078       17.12153226864640       22.04818906873772
N           10.22265218472143       15.09126403711245       23.93425784111539
O           10.13166530664230       14.93701396497465       21.00269130123050
C           10.69346936856824       16.00651234509050       21.76280498369569
N           13.78947996915929       14.82518444664121       21.19956740796644
O           16.43994613249939       19.67210337816269       23.03096461454730
C            9.70793133739769       15.29088598484948       19.70220808919126
N           19.10699667857396       21.74085935526894       22.55279473721419
O           27.63990442551318       18.43905311330606       14.14481577677703
C           11.17546245220047       15.38771117799753       23.06094979024074
N           20.46373878977694       21.84900248518089       22.87285412072754
O           24.36801347112236       22.20269727693574       17.70062583618229
C           10.54816433770386       14.55361782193074       25.09519258034447
N           21.31618520690600       21.33356034405132       19.57491459747238
O           21.45596724673781       23.41282334947860       20.42352215883972
C           11.85648769848439       14.28084400895142       25.46341178857477
N           22.18966687309242       22.03702283560711       17.15374209654683
O           20.60723200888397       18.84839139885045       18.57903286812551
C           12.85658864599032       14.58578081287909       24.55982775236407
N           25.43031126464299       18.74365597285551       14.57353447676225
O           22.60945966115934       21.46286963295542       22.30019210429838
C           12.53096556401087       15.14783147958167       23.32421915017122
N           26.20008837053745       18.75065803726824        8.97191793085802
O           16.31717131821829       21.91320400339714       22.97792240693655
C           13.62375613361979       15.47488635439607       22.40167377447479
N           18.47636194398502       17.20516395586322       19.45468537528618
C           13.06907074905991       13.64942407654688       20.77401043669020
C           13.43528914126792       12.42454610887526       21.61291691222612
C           14.63991985499450       16.38534134326299       22.59895745372241
C           14.87026356512720       17.24108303681100       23.80476374731213
C           14.31027061402285       18.67983797248533       23.74616030014860
C           14.48268482611975       19.32804164568713       25.12274060558984
C           12.83047603017799       18.66405090429365       23.36872201857607
C           15.05196957839149       19.51526067916711       22.69365492569535
C           16.93798106869878       20.88403024884501       23.13989796914710
C           18.41577881401622       20.86109121511844       23.49610207418041
C           21.41486949969790       21.40222419655106       22.03380773868760
C           20.88491644649224       20.68072653560897       20.79322752945649
C           21.54968975529999       22.63994064505955       19.47333658532164
C           21.91072513521496       23.14355874291466       18.06753521921549
C           20.86059436348534       24.16227464362308       17.55452983415104
C           21.31062651492031       25.57307516270622       17.93486185769649
C           19.45215737139159       23.92837928818603       18.10418896997112
C           23.46078754786793       21.60556624780938       17.12117286190544
C           23.81122980955174       20.31657932424344       16.34721648753150
C           25.21035209045999       19.83876932956773       16.74367097870235
C           25.56857788510375       18.55084095318579       15.99878832398469
C           26.50566912004347       18.73806223961497       13.76520039282110
C           26.23779823011598       19.09422860691548       12.39550784705865
C           26.11773379204088       19.41378409914818       11.24144965108504
C           25.87992309911526       19.86416306611229        9.87286283315615
C           27.54502506986274       18.23261322655503        9.12566065692624
C           25.90228887598553       18.98293023797067        7.57447141070909
C           24.38594134921891       20.21682394227908        9.77216798899887
C           26.72986995224074       21.13524386588699        9.65986504444162
C           24.10713216611629       19.14716662958644       14.16166269774544
C           23.73259796879978       20.47550599862657       14.82695555733970
C           21.07289286237650       21.47100877329782       16.41935804908545
C           21.39658250189500       19.23598355252543       20.81284457712871
C           20.61235615008956       18.30195657533313       19.88624848016725
C           19.18231461506228       18.05288967685954       20.39342689917751
C           18.47307842530994       17.80872053466087       18.13220753490236
C           19.91767385777581       18.00132551178703       17.68185657244834
C           20.76482963544426       22.37491691085569       24.19233410672827
C           20.10549442610408       21.47845918088324       25.24333414460199
C           18.61211711212854       21.32269389113299       24.95093617751766
C           15.48529671250626       16.29399894488299       21.45354524368031
C           14.93241504759758       15.29872083420287       20.61480816710784
C           15.55763710830465       14.95082428788778       19.42182135327366
C           16.71295138164749       15.60820350487990       19.07595711448950
C           17.27129072800366       16.61945692418469       19.88407841691221
C           16.65917726185319       16.95270978316163       21.07961177226787
F           22.91492057898360       19.31062469604973       16.74642145341728
H            9.44163313519959       17.66170128668865       21.13867756232255
H            8.78846798622441       16.68570109657213       22.47380420954660
H           10.11384665146726       17.81782036858940       22.76323950908719
H           11.55513118493616       16.41512560393119       21.20737205597375
H            8.80567512227058       15.90700631415056       19.72507173945941
H           10.50136606767052       15.82321564757644       19.16585487669385
H            9.48898956353204       14.35237914904210       19.19719525616798
H            9.71798458269544       14.33931998950996       25.75449512909594
H           12.08251638830544       13.84167351619722       26.42159243093256
H           13.89192891091179       14.37789926491416       24.78844220188045
H           11.99316834497983       13.82817258635513       20.84476028299258
H           13.32422938846042       13.47200570963231       19.72840633302186
H           13.02712183945625       12.51642021369355       22.61678354391584
H           13.02338357596536       11.53056311311700       21.15483418507981
H           14.51549722066293       12.32071297344017       21.68272670636162
H           14.41634042010403       16.75612530402626       24.67088667921752
H           15.94685155467999       17.30666049119498       23.97603426074405
H           13.84004236797449       18.83993784511661       25.85412562962272
H           15.51341911115534       19.24577355363371       25.46096743937889
H           14.21658787959796       20.38422343138908       25.08479181089363
H           12.41348944991998       19.66678065785984       23.41718821591161
H           12.69927942292038       18.28049268119805       22.36087135357640
H           12.28061943873728       18.02464132917104       24.05496151902071
H           14.60454907855181       20.51041911942113       22.61173886737293
H           15.01806179888135       19.01731629518047       21.72190509787561
H           18.80933148487066       19.84903244024206       23.35860983217614
H           18.67344781047228       22.66539734324527       22.57546393704015
H           19.79107528105514       20.71198855234821       20.83392721076948
H           21.40629496995997       20.70162561828221       18.79029268669628
H           22.86316369845197       23.67495659863190       18.18777357216725
H           20.83582663151636       24.09423859126263       16.46419434496325
H           22.24055255205426       25.83269687445263       17.43454631803459
H           20.55149781003706       26.29856330119537       17.65706999356943
H           21.46795012970844       25.62944256001423       19.00988446799947
H           18.75898187082768       24.61673223450368       17.62721754560037
H           19.09877826861446       22.91654935870096       17.93290882416317
H           19.43617465341271       24.11671329940761       19.17490508117867
H           25.92314351466576       20.62995590653107       16.51280872017894
H           25.23973777497174       19.66699590397783       17.81992423853248
H           24.90008816869835       17.74448479200812       16.31593203433822
H           26.60140755767952       18.26804388195120       16.20580616881276
H           27.79224510851216       18.14939948950794       10.18470504338659
H           27.58312895805870       17.23662971037560        8.68387405604243
H           28.30781555086072       18.85582375474617        8.63362536954444
H           26.06755121894435       18.04722486995832        7.04124045788480
H           24.86028866567938       19.26295441355166        7.45247250219006
H           26.54125138982623       19.75206440504564        7.11431279866479
H           24.19083073357591       20.81703693965231        8.88869658345094
H           23.79621854395682       19.30641219736752        9.73182583681494
H           24.09182825397777       20.79167730453781       10.64611409884248
H           27.78614890148471       20.92173738794170        9.80605821995919
H           26.57784169530909       21.52250510018097        8.65567865606462
H           26.43200717910829       21.89570156473751       10.37676306572640
H           24.07894347098643       19.24129434910608       13.07681995328122
H           23.39934157340311       18.37359985556444       14.47611117419051
H           22.73613383671807       20.77004618085229       14.50798032489145
H           24.43935971942616       21.25316696345235       14.53606246772291
H           20.85823879564151       22.07485592986123       15.53657634025273
H           21.27305994778668       20.45156677336857       16.11602256668393
H           20.19504057480349       21.46046252471389       17.05882649745314
H           22.44702836080266       19.24933790923993       20.51896628857474
H           21.33973873926400       18.84719738293732       21.82915489645893
H           21.12751476222723       17.32725497208288       19.85360221115749
H           18.66680271656169       19.01732887762621       20.53269230530205
H           19.24629117753582       17.53816716858893       21.35276515319793
H           17.94823588131121       17.16739278451576       17.42835868194880
H           17.97332162154349       18.79223377493573       18.15671009073269
H           19.96246320213044       18.48802843035713       16.70836823080543
H           20.42338166619003       17.02815964637250       17.63220937295557
H           21.84941244912438       22.38829751198001       24.29594182338003
H           20.38408192915114       23.39971296228363       24.25845780397103
H           20.24683566250500       21.91621726028113       26.23047376915322
H           20.58808972118690       20.49981506122493       25.22633185464912
H           18.10020266603388       22.27949833466097       25.08289265822602
H           18.16748636320082       20.59534791913166       25.63061649590727
H           15.16538704216008       14.17648462602239       18.78060913608230
H           17.22416970338652       15.32517198536799       18.16916240924601
H           17.06661854237317       17.70903624162972       21.72968633110803
