151
 energy: -221.323388419979 gnorm: 0.008466743784 xtb: 6.7.1 (edcfbbe)
C            9.70797912730382       17.12374857121527       21.51000252065244
N            9.99895683272942       15.12829858444130       23.51468421469056
O           10.33649935201884       14.99036746600780       20.45400204826644
C           10.73432742145779       15.99469551420788       21.39034913150719
N           13.83077849792654       14.85382421061627       21.16403866201845
O           16.00941374543232       19.74205046463662       23.29115127090075
C            9.12130905943299       14.31611233922909       20.71804449086539
N           18.69182643765770       21.79115251697912       22.25432476924726
O           27.32826274591745       17.88049785973087       13.24970428316396
C           11.05032332737646       15.38934343192119       22.74778627230179
N           19.89328329203628       22.30818535110513       22.74836553422113
O           25.12542763317725       21.42016885600789       17.52189278122696
C           10.17622428578478       14.58352837205304       24.70635793010738
N           21.90852928642164       21.28255046835007       20.02684150899125
O           21.14303522362627       23.38679012597766       19.86846380009114
C           11.42357210880227       14.24843393802094       25.20520626408355
N           22.88545288675077       21.53939401656940       17.46187180325760
O           21.12894887861561       18.61657424764175       19.45335889734742
C           12.52789533448784       14.51350287303536       24.41502401858499
N           25.23221484365665       18.21409880508670       14.05960762465321
O           22.14053681330678       22.39525104610948       22.60080861130361
C           12.36138841582206       15.10243961868730       23.16188724224611
N           26.30715042516606       20.11157483134292        8.67553267695762
O           16.02429547611883       21.46285806055360       21.85874905155660
C           13.55606118417232       15.43675021378312       22.37868930813828
N           18.68378057597102       17.28057673028957       20.02879717151904
C           13.16683073167236       13.70660617599402       20.60077689893669
C           13.93833457780660       12.41716679088706       20.88213898809084
C           14.54819296585747       16.33497309074205       22.71465331085889
C           14.67241470820908       17.12803914520881       23.97765005115840
C           14.01423100704804       18.52447401997661       23.96671883208097
C           14.18427278956601       19.16421636460931       25.34767039222526
C           12.52787990503065       18.41132661745698       23.63276074523040
C           14.66245180244083       19.41813227242458       22.90703109475607
C           16.55705979238242       20.78868459385883       22.71560127558966
C           17.92755847684169       21.10401829616873       23.28681006263051
C           21.06682545101355       21.96398852176043       22.19812887863574
C           20.97137103268012       20.93032895149508       21.07020797173743
C           21.90694747322903       22.50693107317494       19.48791916954358
C           22.95031023288317       22.67797554775204       18.37857210025814
C           22.94286969836663       24.03282232583382       17.63798237091094
C           23.38728138318351       25.13440187242424       18.59977397882274
C           21.60475779044852       24.40388125975045       17.00255193664366
C           24.04886766265987       20.96830295867369       17.12848536390464
C           24.07538107134076       19.71294041298481       16.22871626931696
C           25.45000547016046       19.04672866599316       16.34398016116191
C           25.57083293386927       17.83996100669680       15.41343962985430
C           26.16521706475037       18.25532015391905       13.09271081562477
C           25.71021902425677       18.76123255821935       11.82292106672412
C           25.53353689049033       19.17947692342765       10.70724336048908
C           25.10615264828498       19.72823159074049        9.42269313278061
C           27.18557884063393       21.01689699875805        9.38790175617847
C           26.08122832795309       20.57790622037011        7.32436018881541
C           24.35669684588094       18.60335725987387        8.68850162511983
C           24.13104983368559       20.89010864373296        9.72019194119378
C           23.90332797214098       18.75633604367711       13.92304469212815
C           23.76320170917315       20.03061235627210       14.76378567537911
C           21.56795046590230       21.12714304309250       17.01006176604563
C           21.28273826623807       19.54832416445764       21.64991013817515
C           20.73358836867163       18.40113468166539       20.79557026235938
C           19.20531383502804       18.27020822857442       20.95028008361243
C           19.08145183873377       17.61203575360201       18.67161045652743
C           20.60565780552069       17.60983748862388       18.61267589111132
C           19.79427714990053       23.20642479294134       23.88413516971492
C           19.09721942295823       22.47417925136889       25.03027855333126
C           17.73788862881467       21.96082174455184       24.55511906951617
C           15.49130370673297       16.30774761490283       21.64267012865399
C           15.01764467462158       15.35922968285011       20.71023645684208
C           15.75040336661682       15.07376102275095       19.56531324253952
C           16.94162473325580       15.73081978305700       19.37134411537562
C           17.43168804239522       16.70466464298136       20.26984597764155
C           16.68822811170669       16.98898490087123       21.40802665182849
F           23.12431892271438       18.79509576481596       16.69178067820856
H            9.35723612189603       17.39697410049772       20.51752893874018
H            8.87205819144384       16.80125928107332       22.12244228625281
H           10.16864080418456       17.98948783364429       21.97543374733662
H           11.65814441430014       16.37857343002134       20.94074666266718
H            9.15644834316889       13.78371107171679       21.67428158217566
H            8.27155839298749       15.00243031274552       20.72490496426163
H            9.01061961044860       13.60203487798556       19.90556284058664
H            9.27207198901394       14.41342970278771       25.27653872593736
H           11.52362275512685       13.79440215917913       26.17767921901109
H           13.52305877304631       14.26063217389259       24.74906243177711
H           12.16556098186352       13.64074990426221       21.02887001145633
H           13.06052233385510       13.85798924739934       19.52286332472871
H           14.02311106650881       12.25357773423580       21.95499679641608
H           13.41943157223428       11.57262542643400       20.43926081284370
H           14.94060449902015       12.47403585006426       20.46390279581707
H           14.22297709556050       16.56570505226315       24.79776381073989
H           15.73425817907748       17.25691478141289       24.19494958335365
H           13.68039551837064       18.56527961992207       26.10122660816411
H           15.23727652609181       19.23560610781592       25.60485395103106
H           13.75568687585201       20.16397197130145       25.35772577676942
H           12.05031370771075       19.38678729842228       23.67756153432869
H           12.40086693982214       18.00631881253944       22.63379817794359
H           12.03256662185819       17.75167632430967       24.33994555296979
H           14.10768581201635       20.35537382751847       22.79506396700135
H           14.69474024128692       18.91969650687080       21.93532174751364
H           18.44494623106567       20.17374534062347       23.54020499463075
H           18.11935286440600       22.54077092822639       21.85967921664505
H           19.95497563222719       20.96809599035628       20.66773189137617
H           22.52117655769441       20.55310321132902       19.69378599029199
H           23.93140287673000       22.60666035486580       18.87039230077979
H           23.69699743884462       23.94124943028712       16.84632198908253
H           24.36881342542360       24.91356120917784       19.01409558830586
H           23.43757229782562       26.08762015009640       18.08036887069049
H           22.67605186810486       25.21917660896709       19.41654235560154
H           21.31040674181906       23.69466307827303       16.23829475985377
H           20.83472127259594       24.45623636194987       17.76529380195944
H           21.69324486144152       25.38212355043943       16.53813115648289
H           26.20575262749955       19.79354979509911       16.09955094514360
H           25.60972014044820       18.73519618513181       17.37660983555837
H           24.89225552230957       17.04650033355621       15.74030994532652
H           26.59535844075091       17.46564961674624       15.41731414186439
H           27.28904101954614       20.69054904600774       10.42346970053375
H           28.17022142061991       20.98125547690621        8.91647638325146
H           26.83369909305921       22.06231149912083        9.37445368611997
H           27.05223810892354       20.67683784561699        6.84018908374388
H           25.49812173045803       19.85122748628538        6.76730748189260
H           25.58019406311140       21.55733430333524        7.27907973332436
H           23.78165384463374       19.00448610470854        7.85874421287632
H           25.06641098220681       17.86801477312800        8.32040455357030
H           23.67254948787580       18.11398459336887        9.37643026095706
H           24.59745803870178       21.62682851823835       10.36891473055988
H           23.83010425833342       21.37082253321192        8.79260349063785
H           23.24460791193944       20.50308284205107       10.21313137966716
H           23.70582739745662       18.97075389517626       12.87349448708694
H           23.18865219881208       18.01056081751284       14.28285917756799
H           22.74901947034557       20.40824044712074       14.65973057508838
H           24.46324258680140       20.79142401781572       14.42145863297749
H           20.82624002951465       21.70087562349324       17.55816593847383
H           21.43775531047536       21.32757501601682       15.94702812052443
H           21.39636072892563       20.07340736903497       17.21104134574016
H           22.36512417671086       19.45613756395870       21.74596337807717
H           20.84994115613286       19.47323266336880       22.64763338199505
H           21.17933350273910       17.45176541794614       21.13944982690754
H           18.72696208449814       19.25108861933324       20.79302413127245
H           19.01736421495988       17.94403267158850       21.97327274675806
H           18.69166155116302       16.88994565603858       17.96121907527289
H           18.71419270014055       18.61441847274081       18.39731816275787
H           20.96849967916583       17.82649110446234       17.60893307575628
H           20.98109818233731       16.62801492179774       18.93161350555104
H           20.80760235073147       23.50837835540180       24.14777164830574
H           19.21948580327701       24.08965811783656       23.58636108720675
H           18.96843932281269       23.15107302409316       25.87312934261651
H           19.71937358685853       21.63636124773338       25.34847658837832
H           17.08815789847203       22.80616698853462       24.31548052244806
H           17.25874508321521       21.36199720494302       25.32905548132017
H           15.41089474851486       14.34988629383264       18.84015790333915
H           17.51910475655921       15.46746237544393       18.49771917708778
H           17.00889668907506       17.72875575183687       22.12234609078593
