151
 energy: -221.329454277175 gnorm: 0.004362014523 xtb: 6.7.1 (edcfbbe)
C           10.15402596899195       15.74299368051408       24.24153332193263
N           11.79756393558282       13.43365226745500       24.22230948145450
O           10.21716196610626       14.59849004607322       22.06824896078372
C           10.97942992210304       15.34602980661224       23.01784371919112
N           13.42430124128055       15.85718769095607       20.79691825617826
O           16.56407595539766       19.53174429350877       24.08298762642053
C            9.28365608939539       15.35155330754309       21.32769662417714
N           19.14238924707579       21.68129612098428       23.14212235231520
O           26.50753252558579       16.87513377095603       14.17283038904431
C           12.12568481697985       14.43863514688224       23.42210477309183
N           20.53894947702078       21.72249480671775       23.21582891568260
O           23.70126660816639       20.84774452183981       17.77340533785167
C           12.72680523908277       12.58043955270890       24.61140192443925
N           21.29370469768716       21.74963816878610       19.71051431005597
O           19.68752541158403       22.91925850253500       18.63955403655534
C           14.05598351440229       12.68306822504826       24.23080263290323
N           21.88490023423364       21.65437125071455       16.72506120412725
O           19.27827536906543       19.69836992134870       18.43318246168853
C           14.40797341542628       13.72785023572760       23.39814498509370
N           24.45895839927936       17.84926606823750       14.18512890667547
O           22.50612203715280       21.51666624418687       22.12998569507501
C           13.43683852939282       14.63427772747002       22.96741407433550
N           27.83321410622752       19.58115579162586        9.86601515156385
O           16.44449617512921       21.76528860375486       23.91661777741586
C           13.86261566802134       15.73327114054027       22.09501546268725
N           16.54776968792824       20.15008963640765       19.16539511228434
C           12.71540643494800       14.84595467759146       20.05300195330743
C           13.67816074288084       13.80132521304312       19.48954341779433
C           14.78292589036341       16.71707312761131       22.38799985808391
C           15.45771803095456       16.91157195892228       23.70795832107349
C           14.81717314329902       17.97170243320571       24.63580316099675
C           15.39844843442951       17.80547566302459       26.04306513394901
C           13.30071029028323       17.80513185867425       24.68920853210546
C           15.13753739059597       19.38160863352326       24.12722815502862
C           17.07984395621075       20.73723341938856       23.99073820552808
C           18.59683122679181       20.66966172631621       24.03715988379658
C           21.27973978669692       21.52815700544549       22.11398445942820
C           20.47714216012532       21.33980064591231       20.82611186308764
C           20.84168603843670       22.51557952539807       18.71471883226370
C           21.89729984229752       22.79953388789385       17.63809563175850
C           21.67788954472161       24.14728648696774       16.93778251571455
C           22.70395898427041       24.35566186198301       15.82670103008837
C           21.80316969871070       25.26305645671035       17.97509140589972
C           22.83305025843400       20.72816098104896       16.90521676274945
C           22.92117624626110       19.51663498815406       15.95391316728532
C           23.96402715926178       18.52569022448672       16.47467368461425
C           24.12535014704683       17.35860463476858       15.50238889233838
C           25.65679264111141       17.58515778138108       13.63307401379385
C           25.87723697540580       18.14811973417850       12.32546426225031
C           26.21210804462040       18.53966068427266       11.23689747390470
C           26.47659998709914       19.02292909586797        9.88312053553104
C           28.02492649137565       20.68170162074134       10.78943685280666
C           28.35470332870413       19.91356073211718        8.55742521162377
C           26.38899645768632       17.78910545398098        8.96977355936865
C           25.36475357571599       20.02495231639870        9.50483793937088
C           23.47150419159578       18.73833656687395       13.62403086425137
C           23.27398328443725       19.95836379377378       14.53076814320487
C           20.72876486184964       21.56666921154483       15.85722743168284
C           20.04195682342268       19.86865316242398       20.71426356762115
C           18.85233497052747       19.61355399146834       19.78855928297842
C           17.65676302550771       20.55766467907105       20.01000709885525
C           16.99808517640053       20.27346642976725       17.78693922710749
C           18.21721271376611       19.37334701263458       17.55242621254620
C           21.12443859925282       21.92428013272125       24.53165550091759
C           20.60311244917959       20.86157833461534       25.49858124963376
C           19.07479811948605       20.86229297719112       25.48797081383861
C           14.95394322652524       17.47934717954567       21.19190984789893
C           14.09566166916058       16.90652177734693       20.22572023978284
C           14.03498766966207       17.43200805671521       18.94258038379376
C           14.84893496700816       18.49423882135765       18.62746826955213
C           15.76726462057481       19.05096977365945       19.54571023287081
C           15.79796052382367       18.53429127871994       20.83699958804538
F           21.69078010020865       18.83991196115823       15.92831572445086
H           10.78908582128705       16.25111992576067       24.95959285062859
H            9.34579824360330       16.41169832759149       23.96017102843613
H            9.74462228893951       14.84636052490431       24.69619103840409
H           11.37758509027351       16.24646907706332       22.52389328909612
H            8.53102274152919       15.81516087757006       21.96684265207630
H            9.78546777425112       16.12844824200234       20.74266858007454
H            8.79965541162943       14.64569894739993       20.66074814327702
H           12.38417894290896       11.78421535550045       25.25757601469680
H           14.78724384231258       11.96773248361678       24.57064077995265
H           15.42709353679560       13.84608359229686       23.05902846266657
H           11.98666839451514       14.36195913189091       20.70596276546422
H           12.18028618764470       15.33838120565493       19.23817179899207
H           13.13721904346171       13.09500872324648       18.86725123640501
H           14.44857070025356       14.28335264469111       18.89138578467183
H           14.15707203985902       13.25641918321088       20.30011584087479
H           15.44408760278535       15.96214003316487       24.24515173754699
H           16.49860637268609       17.19368684367702       23.54095695742944
H           15.13564442344140       16.83044822738379       26.44453027924488
H           16.48158500757593       17.89062057858455       26.01870390226332
H           15.00407823030111       18.56875541103499       26.70984030252038
H           13.05697748686033       16.80328693887631       25.03308886337269
H           12.86120116255974       18.52715571381616       25.37247087189823
H           12.86267788659938       17.94863670996884       23.70527085142123
H           14.72445719107597       20.14904867372395       24.78942887799542
H           14.73655237041795       19.53986600640189       23.12196285433629
H           18.91199169401476       19.68352807721281       23.68067489036416
H           18.74295324327768       22.58943024575212       23.38414367682236
H           19.60413347222303       21.99277866104112       20.85601208929701
H           22.25907091755044       21.44471243334511       19.72777976369600
H           22.88564221775367       22.80603342852859       18.10889929243119
H           20.66562945163994       24.17588078777891       16.52729362973543
H           22.58844529402316       25.34889049415012       15.40224845988588
H           23.71112278712499       24.26727646354498       16.22792893177468
H           22.59174371272217       23.62680879434422       15.03009896730037
H           21.08349269961801       25.12235369307352       18.77775008090272
H           22.80315422413868       25.27630677384402       18.40279881244864
H           21.61196306296393       26.22586707598936       17.51037993010662
H           24.90870663006210       19.05417881179655       16.59961047757475
H           23.65182789778710       18.15743278638923       17.45197194516284
H           23.18792004963428       16.79579403741719       15.44402618295270
H           24.92717382614757       16.69588887049462       15.83146682121723
H           29.09496171126187       20.80561668535941       10.95910321435398
H           27.62417672972129       21.63540297827408       10.41338729718330
H           27.55211517869365       20.44739744051993       11.74156361046939
H           28.35913657917057       19.03461613155202        7.91958024378966
H           27.79986870869802       20.72224514337434        8.05788923271016
H           29.38504846575777       20.24274435244140        8.68560695319524
H           25.49067440217503       17.22570554712479        9.20932141041459
H           26.34230511557908       18.08527721585205        7.92608272108985
H           27.25256391962098       17.15014482793707        9.13138557244818
H           25.34515174169412       20.86034787388322       10.19999420663365
H           25.53214343407471       20.40210520975420        8.49941842565813
H           24.40037315133107       19.52573808741740        9.53295994252366
H           23.79531466494037       19.05649813300442       12.63299264670120
H           22.52358785543517       18.19634451383620       13.53976401331731
H           22.48304596211088       20.58209682806657       14.11987591807622
H           24.19467947703384       20.54014908964074       14.58385625436433
H           20.86125439670835       22.19355935231869       14.97487783597332
H           20.53736701657196       20.54511233037162       15.55558744897520
H           19.86123740039637       21.92106063651032       16.41301426033875
H           20.88982247319934       19.28541250697167       20.34961210199655
H           19.77264768569600       19.50555292328907       21.70365016012957
H           18.50413814121551       18.57879036082709       19.96676423558585
H           17.93822412985574       21.56404794987819       19.68909945538095
H           17.37033841319458       20.59989320017721       21.05858294569885
H           16.21115764155196       20.02723977647956       17.08070019918605
H           17.28864222300597       21.31717834898729       17.63443512859886
H           18.61514699475296       19.49319487399024       16.54553609783497
H           17.92484904360094       18.32230587722612       17.70642732813518
H           22.20652583083793       21.86794271716818       24.41606272328148
H           20.84831564038464       22.92366543567725       24.88381358172294
H           20.97421614902342       21.07076092980595       26.50044306370082
H           20.97103233228570       19.88181310864314       25.19009860894518
H           18.69370388007945       21.81519291539541       25.86246008859638
H           18.68393953147492       20.06154015384345       26.11435897674031
H           13.37056248557466       17.02531099022550       18.19546864532010
H           14.76915145887299       18.90304550322333       17.63426570995507
H           16.48124492072025       18.91460673851082       21.57774513790912
