151
 energy: -221.324813400175 gnorm: 0.009214630816 xtb: 6.7.1 (edcfbbe)
C           10.79876272393108       15.36541715494255       24.23673561785270
N           12.19084243554560       13.05229716455951       23.42669462060905
O           10.43853218993611       14.83559538561360       21.86258050830270
C           11.40069994770480       15.24500283939624       22.83801296666658
N           13.35229260105780       16.13619319608240       20.43556742966292
O           17.13946265919012       18.95064981019868       23.92935117655367
C            9.50087896763261       15.82564031697038       21.50348942495711
N           19.16187257641601       21.64588680958541       23.17386419785484
O           26.38195716926638       17.02126857731025       15.50445597549728
C           12.48741661996528       14.18673400858116       22.81056497377611
N           20.52370079522689       21.95246390280655       23.09762127019377
O           23.46016143940277       21.76972595699959       17.84193776181496
C           13.07679407586024       12.07233383002441       23.44736177267599
N           20.99487024906768       22.41915378824830       19.54736751007523
O           19.36940217107396       23.71765036233975       18.66841935790463
C           14.32612731226532       12.17059293331598       22.85595470049297
N           21.60800355589852       22.31535318595970       16.69423231501082
O           18.65270610496331       20.73876534623195       18.30080395832904
C           14.64493464109058       13.34988664804328       22.20751640817908
N           24.45016332210893       18.13622935623778       15.09200908552588
O           22.36208719039582       22.17085911969246       21.81508857173288
C           13.71868683059971       14.39148627207087       22.16660374891565
N           27.08914359411125       19.01564038882731       10.23478622678151
O           16.65869960011891       21.08009065967041       24.43756901372829
C           14.07114698855883       15.65106229020807       21.50563605721276
N           16.07536742632667       20.88855584922736       19.54395981168823
C           12.51671714819093       15.34186483015716       19.56733632543814
C           13.36305454992491       14.55239623859375       18.56936497916435
C           15.07614626949781       16.53044121157766       21.84813182435692
C           16.09397916481578       16.35732509086525       22.93126306934739
C           15.74609086749483       17.00670107213764       24.28970972634635
C           16.77232072019191       16.54983132628865       25.33207606338974
C           14.34406758495917       16.60273780860031       24.74185946090851
C           15.78807979420708       18.53415953158139       24.17169725393936
C           17.44739880511527       20.21459532628869       24.12525488793224
C           18.94128235874063       20.44240821774588       23.97189868145482
C           21.15102544056128       22.00818038726390       21.91174852033577
C           20.24994384277882       21.91814596943922       20.67731078066685
C           20.50135988963038       23.25762499811274       18.62995085296414
C           21.50718472592589       23.53803956096160       17.49864785504986
C           21.17196231011943       24.79921850445853       16.69621586796539
C           22.14349534492143       24.96915386215176       15.52947080577504
C           21.26739587633942       26.00733240178318       17.62859351459328
C           22.59172158809640       21.46922349886213       17.01653856118169
C           22.73581563850566       20.10698557312716       16.30823850438862
C           23.65243251900986       19.20558648487986       17.13938223599411
C           23.92492608154936       17.89261014676899       16.41609494090326
C           25.65101458273064       17.64852506748405       14.73341070987326
C           26.02981976763646       17.83608864612894       13.35766202622682
C           26.46369488228896       17.83097633134621       12.23384989729457
C           26.88587489304002       17.69593567168323       10.84451758995303
C           26.12023502375054       20.01619362857801       10.63239159093920
C           27.25207256505628       18.98205031583361        8.79448772004339
C           28.22181772379136       16.93019403589298       10.85842807891163
C           25.79624145163089       16.84132026343982       10.15462743929917
C           23.58587965514266       18.92642706014294       14.24909792604609
C           23.30908471668174       20.28702108659708       14.89852995656362
C           20.45762106849267       22.02511457526246       15.86661575514142
C           19.78590367408309       20.47199097970003       20.42380239799205
C           18.46883502415355       20.34270943206071       19.65496161992425
C           17.30369862012553       21.13368851016566       20.27741184197969
C           16.29259648920078       21.33944738434149       18.17700872993649
C           17.45707249633239       20.56134281621496       17.55704739004271
C           21.23443659641001       22.11314197451400       24.35854997950501
C           21.05599673629113       20.86767335847991       25.22451000834472
C           19.56851018677158       20.55281867714235       25.37383688183097
C           14.98412563210480       17.62249228691900       20.93197879673222
C           13.90515312970091       17.33425501632143       20.06722308441792
C           13.53602657683526       18.23667122456710       19.07851826899351
C           14.26622081956005       19.39282535442032       18.94359772711958
C           15.39581886805503       19.67813480836670       19.74121997934786
C           15.73777251941373       18.78347770770791       20.74703184230205
F           21.49702294398993       19.45752745456850       16.22292834272336
H           11.58305569543577       15.60700369310511       24.94790273247502
H           10.04717706221149       16.15008159864130       24.26224241582199
H           10.34794648966028       14.41746799502986       24.51127402873447
H           11.82065588210729       16.21482489146102       22.52779814778358
H            8.94079169713275       15.41223899167395       20.66728679310388
H            8.81311625883953       16.05245649167187       22.32246984365647
H           10.00631664195988       16.74670617307139       21.19094732974970
H           12.76400989792227       11.17620566430241       23.96552074017024
H           15.02469976103618       11.35099120546398       22.89663649473878
H           15.60016693170952       13.46981977970870       21.71688009334389
H           11.90952969865583       14.66207818782384       20.17054903760797
H           11.84797358724170       16.02048064375225       19.03172024060369
H           12.71984561378346       14.00136888304868       17.89063865323029
H           13.98970901004539       15.22860615243217       17.99149899454373
H           14.00469475671457       13.84713057412854       19.09278676175681
H           16.24185283623638       15.29106566260973       23.10812370297781
H           17.03895723919688       16.78088463702679       22.58700696897925
H           16.73017463036948       15.47102526620787       25.44989830322084
H           17.77658407555271       16.82720893293847       25.02423208961553
H           16.56107371087660       17.00859794821078       26.29418460922135
H           14.14027225106783       16.99029092288790       25.73755493029327
H           13.59619318955048       16.99438366611477       24.05743897065232
H           14.25734760015339       15.51957590312229       24.76620260863605
H           15.43907779363871       19.01608721356561       25.08833874521204
H           15.16121572924763       18.87876709248635       23.34501666036068
H           19.37650015394243       19.58751977207703       23.44440875934759
H           18.64577198192150       22.41918320982246       23.59631971300239
H           19.39093610401467       22.57443144610501       20.82955518619418
H           21.97028426876568       22.14553780673850       19.51232200889116
H           22.49527392926439       23.67584478340287       17.95379551981415
H           20.14349182180105       24.73774675718185       16.33427616488034
H           22.11903663473791       24.11917506837232       14.85487700678374
H           21.89338820645898       25.86368573348590       14.96803852790576
H           23.15826972112481       25.07154529747127       15.90743211356242
H           20.51519333712610       25.94638179249113       18.40810114865807
H           22.24413274535341       26.05108550092770       18.09774205862123
H           21.11059690811892       26.92022580426481       17.07074212963484
H           24.57923541883194       19.74452446323308       17.32758282920646
H           23.17781818521009       19.00422465168432       18.10061681483501
H           22.99555661709150       17.32102863807697       16.32539370517644
H           24.65970749336421       17.30189465416415       16.96522761154246
H           26.23241994232807       20.22215036049073       11.69908041569084
H           26.32948815906889       20.93380180757064       10.07785804791796
H           25.07660389332713       19.72187361601881       10.43258960969393
H           27.66691759644201       19.93968240149371        8.48049355305085
H           27.95565191133031       18.20306469469001        8.51851284282309
H           26.30798807809426       18.82199239892011        8.25566048697229
H           28.16114603289696       16.09938220444987       11.55748651590440
H           28.45328165531294       16.53436868974313        9.87255591354815
H           29.02040118147849       17.59748354453250       11.17174846906512
H           24.87356114975780       17.40698249679424       10.05708100110320
H           26.13297835597284       16.53227368943007        9.17008136496671
H           25.59784752832612       15.95452996342794       10.75004438707545
H           24.06005072856020       19.06428226831028       13.27718544892379
H           22.64013001925177       18.39063030031198       14.11921657258661
H           22.61681918470555       20.85018463341983       14.27350277936422
H           24.23512655318443       20.85424546020387       14.99351300179392
H           20.60777782066656       21.13888995444730       15.26509449935392
H           19.59364227388154       21.86901420365523       16.51297339900825
H           20.26134216028047       22.86892058627753       15.21017533750753
H           20.56512270835884       19.96173413622997       19.85516710807441
H           19.65469266924161       19.96112930704872       21.37293427219462
H           18.19089944289965       19.27318860185618       19.65084426963186
H           17.50722905140683       22.20307468913897       20.18092974390818
H           17.19099119455299       20.90116169886400       21.33404477449529
H           15.40202971061858       21.21543806294982       17.56832472650609
H           16.55168443570119       22.40133823954898       18.21317142835378
H           17.66632164129221       20.91087989098130       16.54588515396619
H           17.20444187277911       19.48899652199545       17.52596665747768
H           22.28291105092620       22.28874703767219       24.11893225501767
H           20.82719263432167       22.99179915655353       24.87017238077010
H           21.50167452242252       21.03998982277876       26.20203713395150
H           21.56515346807938       20.02556951706826       24.75409331454434
H           19.06326129343951       21.35198895450717       25.92137490741133
H           19.42865149008949       19.61894071773389       25.91588894308442
H           12.69125987477237       18.05549950903637       18.43241534200427
H           13.94368938982805       20.10567930375979       18.20281627789186
H           16.57846040535998       18.96469014544194       21.39747471425191
