151
 energy: -221.318169892139 gnorm: 0.004738021784 xtb: 6.7.1 (edcfbbe)
C           10.01501373973096       17.56449247359478       21.94693012057547
N           10.22882310434232       15.01095704780112       23.18267838496957
O           10.43842893813039       15.85011079936539       20.22919930593214
C           10.94547466500239       16.47818573671985       21.40894226723695
N           13.82007575546299       15.29789324465534       20.57571039449022
O           16.35892162075811       19.33702567130810       23.68019487034300
C            9.13052717602539       15.31414463223108       20.31395843275188
N           18.72089687545213       21.68232930629039       22.44568977215636
O           27.73556737941875       18.13314387869235       14.05904953263002
C           11.26508683618616       15.44273444478341       22.47511524455107
N           19.88218970551419       22.34919958189114       22.84698094807120
O           24.82877162633402       22.28393411091646       17.27722628613559
C           10.41136520491911       14.10347606714396       24.12611390012510
N           21.70009711404839       21.73592274491893       19.80384603689302
O           20.63339990869721       23.69735335670331       19.58692088665239
C           11.65327836060261       13.57121714085295       24.43016765605147
N           22.61277647574521       21.89624683455087       17.27040324946125
O           21.28223550227716       18.86804445531311       19.25741907587276
C           12.74111999338834       14.00778192020331       23.69567236070632
N           25.59742046421066       18.27149484529867       14.81102642854909
O           22.00679077030929       22.91889162762258       22.34332988390019
C           12.56700645633564       14.95835677313443       22.69056302665307
N           25.85227461276866       19.96677923338123        9.43217539543287
O           16.12435901961569       20.98739870013804       22.18959906437124
C           13.73329798186055       15.43598974943665       21.94340532472184
N           18.81708158287218       17.53321915649491       19.74353718771096
C           13.05980241957813       14.37547514571294       19.77080320260896
C           13.81600519227374       13.06035047696621       19.58257068523815
C           14.84613868024997       16.08912994236168       22.43075196801046
C           15.17311625351174       16.44159408581311       23.84759774836992
C           14.59441816536749       17.78090161145434       24.35725553378122
C           15.10904913102612       18.03036943133006       25.77732379726990
C           13.06662589183293       17.73246415056784       24.37446637492803
C           14.99969128514420       18.93950390542074       23.43939783378483
C           16.77645073989455       20.39946783058674       23.02741107785388
C           18.14179108873904       20.86692676114680       23.49804867504314
C           20.98742669839218       22.29311193759560       22.08416171731392
C           20.87503423647615       21.31442209821596       20.91116954547251
C           21.48124990750984       22.90602387701690       19.19120541037272
C           22.39157801323197       23.15311313447399       17.98089058461357
C           21.97076277368607       24.31442966583802       17.04989544643514
C           22.29719587931513       25.64081862704337       17.73733977250298
C           20.50421174621364       24.30616777743375       16.62148475858331
C           23.88308889165270       21.53592555725162       17.03266954616420
C           24.18412885182240       20.12048263677291       16.49353200195258
C           25.66502362946846       19.79286927991055       16.70738954035435
C           25.97927893988156       18.38385254600887       16.20039777194473
C           26.52959838828665       18.25183728684540       13.83897144449815
C           26.00759324485864       18.38854477055192       12.50358875268565
C           25.67448054585857       18.61333043232918       11.36859327283961
C           25.09832961857832       18.86976996991188       10.05169618798104
C           25.98390430818394       21.14352918787976       10.26664608859226
C           25.42265472214613       20.33149550957689        8.09897636587770
C           25.26684801414368       17.58135259842449        9.22921750259167
C           23.59532010766806       19.15911614322798       10.26244012752560
C           24.19212282390072       18.50647708350066       14.58270771314321
C           23.81311626247781       19.92495484320471       15.02195649839127
C           21.42809562897337       21.17531747165110       16.83818854971956
C           21.27999462077460       19.92750809849316       21.41261510695895
C           20.75312778176351       18.76788808344885       20.56670765574697
C           19.22096561306023       18.69352272122519       20.51902462989649
C           19.38688855516981       17.58867250853583       18.41031092374762
C           20.90585386381803       17.73611445313041       18.50595299607978
C           19.80063476221312       23.15544150075671       24.05379769502089
C           19.28962127425752       22.28493490010220       25.20150750582373
C           17.95446709931499       21.65207178648731       24.81173773019375
C           15.67703731820140       16.36469521004755       21.30031453803497
C           15.00028049537793       15.85692177967815       20.16795349387840
C           15.54219080211966       15.99612787109947       18.89978432737162
C           16.76883555210094       16.60857674875250       18.77619614192728
C           17.50494154606654       17.05685750860184       19.89182298231770
C           16.93744391603391       16.94283056600558       21.15504866583639
F           23.45304214313341       19.20250666157053       17.26267254755830
H            9.71209102683801       18.21685424669245       21.13185765635073
H            9.13950827251007       17.11507514986033       22.40455087628179
H           10.53626330469729       18.15342912980059       22.69558269815062
H           11.87915048712274       16.93280660968857       21.05719751261590
H            8.37587784319958       16.10206882570709       20.24346887763878
H            9.03354834441067       14.64386469279298       19.46171229157358
H            8.98948161891085       14.75634743657738       21.24270224189132
H            9.51884922808932       13.79974259121543       24.65602745478735
H           11.76377810079079       12.83736705702055       25.21178352676442
H           13.72730588051674       13.60909006185926       23.88210912553070
H           12.10397111279613       14.18926095903644       20.26003876070719
H           12.85598605183974       14.84152671734927       18.80391128740481
H           14.01007704431512       12.59863346502590       20.54810358817282
H           13.22584366768755       12.37732528319409       18.97917549530623
H           14.76777355327260       13.23665571478943       19.08782136628781
H           14.81012222131335       15.65832434928892       24.51468924335965
H           16.25964341280733       16.48637295560731       23.93872465450390
H           14.75631243820017       17.24562920252981       26.44095038043685
H           16.19485532442321       18.03967639873792       25.79413785530108
H           14.74796581587099       18.98571585023903       26.14944062902475
H           12.66257872987299       18.63124456809986       24.83465399228220
H           12.68126737951390       17.65816257934858       23.36209851997919
H           12.71873298205787       16.87226061246849       24.94018093744303
H           14.36412630534835       19.81382705478420       23.62062456655753
H           14.89518422899380       18.66243434101703       22.38534714049992
H           18.78984556068651       20.00376873700193       23.67631615678927
H           18.02072987420737       22.34384265073647       22.10868925499445
H           19.82953896140592       21.32670007791785       20.59024702930751
H           22.39297207856985       21.08561192853017       19.46735584947226
H           23.37042993854756       23.43372435628704       18.39525867789959
H           22.60169151186495       24.22664072565078       16.15650724141304
H           23.36253242089440       25.71609967740359       17.94310983858342
H           22.00740933975654       26.47395247870383       17.10310915244758
H           21.75400303958182       25.71210335969672       18.67614968948444
H           20.25257006075065       23.42875341159397       16.03665602301241
H           19.86169115358679       24.35236281682298       17.49608955018960
H           20.31009945699113       25.18371169328353       16.00976206122724
H           26.26158983986326       20.53231927002336       16.17276639183006
H           25.90370946513685       19.87292136547574       17.76797945191212
H           25.41989252239910       17.64641085140141       16.78253789540122
H           27.04748354064722       18.17983410840851       16.28142141791148
H           26.37357745612014       20.85883841289332       11.24155609906414
H           26.69680846244950       21.81763451915102        9.79545418734246
H           25.03812305557122       21.68873675456197       10.40506910423688
H           26.16899292319316       21.00746995349448        7.68222513562804
H           25.37344256727566       19.45136177776140        7.46575954386367
H           24.45066440976046       20.84733073755336        8.08010776082927
H           24.63467196985617       17.60120443584532        8.34641109127535
H           26.30525152728250       17.47169875091881        8.93058715806784
H           24.98376031846900       16.72415895853612        9.83473303020410
H           23.45633612192827       20.00133200758073       10.93530227513985
H           23.12158067180719       19.38039033716439        9.31023770738615
H           23.11599112681172       18.28535735035453       10.69418292285241
H           23.96470806701521       18.36393018586740       13.52713110353338
H           23.62632763392538       17.78134772842637       15.17622281988881
H           22.74762368161294       20.07033654075765       14.86672313067113
H           24.36449581709356       20.65929290556315       14.43397811568480
H           20.57517565420895       21.57035136277976       17.38240399595789
H           21.26031251202679       21.32491405353270       15.77091573148110
H           21.50558931971076       20.11725700815205       17.06426766280370
H           22.36968320269133       19.87815200514471       21.43677170034729
H           20.91399516117222       19.79820929987680       22.42996383796575
H           21.11592142906897       17.82712314048065       21.01565667355418
H           18.81628377829852       19.61357890792352       20.06993348095002
H           18.84278424140684       18.61598740913266       21.53451537239644
H           19.18081572471500       16.65548764664456       17.88876316053887
H           18.97657902641571       18.43434981695314       17.83423465042597
H           21.33541338169978       17.86812104564823       17.51339747180721
H           21.33220984479585       16.83401295558384       18.96599659284062
H           20.80112457316047       23.54046521576677       24.24942043477235
H           19.12087260541637       23.99652247720132       23.87925791708825
H           19.16749634750648       22.89702432839828       26.09376861896142
H           20.02000351226669       21.50308922720851       25.41406958630433
H           17.20869812848304       22.43391982417725       24.65255175323449
H           17.59759037416826       20.98144510677558       25.59120259193537
H           15.01870541090327       15.65295813355440       18.02082569686439
H           17.15635209890504       16.74334423992116       17.78072089959698
H           17.46395742869963       17.27683136967970       22.03492115002207
