151
 energy: -221.324143522078 gnorm: 0.004783487537 xtb: 6.7.1 (edcfbbe)
C           10.45757444056310       16.01515739973437       22.92298299459494
N           11.69809932740606       13.55822912800826       23.37252002055177
O           11.10299886602261       15.05337553228343       20.76144793730766
C           11.58882296576068       15.54984018001946       22.00742802355374
N           14.22798607392845       15.43526664953023       20.30751429042981
O           16.99802034321673       19.06288997039563       23.94497512581323
C           10.71238480828095       16.05015890967671       19.84309009989547
N           19.29896258704092       21.58829287926548       23.30652018707551
O           24.63522326003226       16.59944710522785       15.08000855496504
C           12.38385741199495       14.42185924159120       22.64183861525206
N           20.66917879780695       21.87082962942950       23.33421353835158
O           23.19448811312181       21.88090342579901       17.80231929753079
C           12.33406042903484       12.55839077528811       23.95868870414974
N           21.22520396969227       22.70317254957725       19.85124019257927
O           19.45482140158314       23.84274600993080       19.03109053110753
C           13.70203598242689       12.36521405592254       23.85734471581043
N           21.47080510842911       22.93037093281904       16.81529893477126
O           19.36955881268340       20.67128051096666       18.37461571657407
C           14.42888962176894       13.25925964458199       23.08985567255859
N           23.17836884500421       18.30954859554454       14.76137080369555
O           22.53384016138158       22.41944792299658       22.19749901282223
C           13.77341460120532       14.31018557083881       22.45545587157694
N           26.86323245751408       17.08222122626578       10.43300119161266
O           16.77336961533598       21.24250351552419       24.42105585233497
C           14.49459268957448       15.30215411290832       21.65198435473037
N           16.72799852494229       20.28576820949398       19.39699826564496
C           13.72921297724485       14.38130119503400       19.46131954499459
C           14.85928807539881       13.45271482309027       19.01624732120508
C           15.33180268543527       16.30731549697895       22.08460393515017
C           15.96713983373452       16.40704913792836       23.43638113939330
C           15.33447132454216       17.36670577408411       24.46903018175113
C           15.97754766600931       17.09379942308455       25.83218410921550
C           13.82450434072588       17.15840169177043       24.55901928840658
C           15.58670048389424       18.82900510540820       24.08152306067162
C           17.45384364726319       20.28215830687635       24.13450595511036
C           18.96736848823068       20.34551975428564       23.99764892651618
C           21.34501330824563       22.12705989469756       22.20153701627162
C           20.53074863954962       22.01303548886618       20.91191340747562
C           20.63542820891380       23.52335071677996       18.97632253036897
C           21.57646001956708       23.97471313433587       17.84495248917172
C           21.28594310076652       25.39847203706710       17.35724513260597
C           22.23256378406993       25.78666531087638       16.22362055666064
C           21.46718387531293       26.36321946023479       18.52935805062980
C           22.27269477314114       21.87148893735386       16.97966501913959
C           22.12638113135867       20.60475765038578       16.11847841216449
C           22.70291119451831       19.41246214530549       16.88748518715155
C           22.55845885588504       18.14233995397506       16.05562481851575
C           24.17306875735457       17.49421203824798       14.36960719458387
C           24.65754300149585       17.70481536691411       13.03107585757496
C           25.13789108682097       17.69930044336771       11.92660885281843
C           25.61565368994966       17.84426432238649       10.55485043156728
C           27.89075428365648       17.48803057723296       11.36920388792042
C           27.40422083591895       16.97396094067629        9.09565594994372
C           24.52933023184190       17.24253648849386        9.64633017341511
C           25.75206546527011       19.35576811093031       10.26885635164778
C           22.66990840169211       19.41617121898617       13.98647246771250
C           22.82400782550466       20.73183635004548       14.76121926076528
C           20.31927672635470       23.01754560062726       15.94319810141977
C           20.35870443921951       20.52105468934309       20.57486305362943
C           19.15410869583439       20.18723972739634       19.69454797158302
C           17.82199245074445       20.72591073699766       20.24381263599829
C           16.96309773939629       20.84140161593910       18.07575959073592
C           18.28967158548031       20.31432634565320       17.52585514746490
C           21.31352657480767       21.88420346517775       24.63793536962092
C           21.08106697475830       20.54361532203699       25.33198126644936
C           19.58155661804112       20.26307597260733       25.40919402589328
C           15.57076299156710       17.13926842054418       20.94568467332943
C           14.88172016167865       16.55199581966854       19.86008314984003
C           14.91088993634655       17.14470785538935       18.60693211878044
C           15.56498194346571       18.34736654437601       18.46318366307908
C           16.22599550103637       18.98624376802861       19.53493317690045
C           16.26104980333570       18.33650390653095       20.76476390973551
F           20.78025703560102       20.31098227273972       15.87876327714485
H           10.86606946505191       16.30824570358890       23.88437086413320
H            9.94342565075879       16.86539602979401       22.48382884324158
H            9.75652736497346       15.19960496978047       23.06601971752337
H           12.26881723125163       16.39276065402761       21.80325334157327
H           11.52235217163926       16.77148177991723       19.68215551667975
H           10.49433039644518       15.52804442841435       18.91404916775869
H            9.81762385213786       16.58297628312420       20.17615255949762
H           11.71054067310669       11.89114097357290       24.53758496135929
H           14.17997554187782       11.53999691824495       24.35971647165908
H           15.49608959828899       13.14257009361908       22.96882623879399
H           12.97107613811078       13.81849626326731       20.00946909493997
H           13.25344371723705       14.83616191186219       18.59038686824923
H           15.29910260146843       12.95477565609096       19.87671954273205
H           14.47344776745199       12.69956709153728       18.33616632528833
H           15.63570609461125       14.02127531693302       18.50991254707250
H           15.96180247626863       15.41113221139461       23.88225065239696
H           17.00740736735133       16.70976055771128       23.29898056527287
H           15.77143173171190       16.07488734184594       26.14812332848565
H           17.05517477692467       17.22775891566658       25.77568496198859
H           15.58205876371342       17.77271185541031       26.58409644750664
H           13.39817564342221       17.79405515685026       25.33114653813345
H           13.35037758978231       17.40024938284187       23.61198632565986
H           13.60207641275713       16.12207835880556       24.79970923215099
H           15.19507530369468       19.51085186229629       24.84249435496745
H           15.10813916013054       19.06203855766934       23.12597635879166
H           19.31321629044763       19.50025878513235       23.39452069280347
H           18.77433667325038       22.34802010065869       23.74621823410883
H           19.56541132393306       22.50100538682157       21.05059425361184
H           22.20178601353608       22.46076104292159       19.73685630822709
H           22.60770135938265       23.94048660708293       18.21141092918321
H           20.24360268978318       25.46205088326119       17.03412121230064
H           22.18058804276824       25.09145026909086       15.39128451952456
H           21.98738886102710       26.78071364033262       15.86045931487262
H           23.25712699006931       25.79657151649068       16.58842367905599
H           20.77465898303796       26.12546276341547       19.33227581412499
H           22.48155300420670       26.30705713285711       18.91825264667473
H           21.27701816196828       27.38146541801127       18.20184373564583
H           23.74880297530806       19.61620020743959       17.11169743567451
H           22.16247377427296       19.30312730597930       17.82791984814954
H           21.49563157716142       17.92093669457393       15.91273502223932
H           23.03912198438305       17.29950903288888       16.55342037518049
H           27.46401738438990       17.57550277262736       12.36674531113742
H           28.66006345065046       16.71644058109059       11.39152156502335
H           28.37004800311611       18.44130282283060       11.09900303357877
H           28.20893068563522       16.24005939721316        9.12343662573763
H           26.64474168826126       16.61686311200566        8.40762555486252
H           27.82049736018111       17.91958816257703        8.71538601201215
H           23.54956997209118       17.56165754220466        9.99156969728717
H           24.65839924565005       17.57593295737979        8.62124113956219
H           24.57607812164102       16.15840384495989        9.68845731023120
H           26.37401350345754       19.83629614929803       11.02157637213578
H           26.19737690697114       19.50919706407607        9.28864948109250
H           24.76989588073572       19.81972124059350       10.28374072847997
H           23.21109500339604       19.46930138128396       13.04169352430350
H           21.60667843544574       19.24455851787664       13.78528740966181
H           22.38583101325169       21.54488689610197       14.18305217684523
H           23.87619146266447       20.95157319988258       14.93861878609309
H           19.40791307805268       22.92260789852321       16.53624490616867
H           20.31488581758589       23.98553297829954       15.44920796657117
H           20.33755947428651       22.24697022203071       15.18547238129918
H           21.26598997959366       20.18753370647486       20.06595466861962
H           20.25661727286030       19.95300946359696       21.49653976680389
H           19.07132255918829       19.08442146864176       19.64125228619853
H           17.82948969558094       21.81788012418832       20.20522621708164
H           17.68641575647341       20.42369967473617       21.27808811927840
H           16.14226653416511       20.62285288304187       17.39845217431729
H           17.03307406894906       21.92781421678807       18.18909539077324
H           18.51618440774493       20.73632702171504       16.54967787822287
H           18.24315287237608       19.21713136008969       17.44490282789418
H           22.37306250057332       22.07584396382468       24.47157399420109
H           20.88703316272622       22.69695240293217       25.23539423824941
H           21.50375059604539       20.58056469359573       26.33531168601147
H           21.58204717849084       19.75205456889151       24.77359929755201
H           19.09778542294849       21.00560030102888       26.04752344357974
H           19.39559604600921       19.27302224604117       25.82473134240773
H           14.41866612001112       16.69492088803312       17.75800229763650
H           15.55840616786959       18.79635611565178       17.48459593745722
H           16.79825958951729       18.74827305625009       21.60018445702837
