151
 energy: -221.318409380113 gnorm: 0.008482709254 xtb: 6.7.1 (edcfbbe)
C           10.07048850127765       17.80751150377558       22.32373371391061
N           10.14438297643176       15.18757343275903       23.40996258297218
O           10.33043020120794       16.19709846878233       20.48369149084948
C           10.90948430845614       16.69446072988270       21.69088565448847
N           13.62806321555107       15.34018286547697       20.67832326067226
O           16.36847617978368       19.17166995935753       23.79896846889394
C            9.04356597949583       15.61637864062087       20.58856258305148
N           18.61121841666102       21.53637210841162       22.38802619879841
O           28.09301881603786       18.78422271022522       13.95100494297821
C           11.18412318269381       15.57536755345356       22.68632252995874
N           19.74478157064018       22.27815518227094       22.73357931416580
O           24.80682607715915       22.40401628171600       17.30203406316953
C           10.29165129993145       14.22844859497762       24.30838456896185
N           21.59753998186804       21.67170229171097       19.71860826298486
O           20.28683438715403       23.43538022602999       19.25982330383791
C           11.50133795383295       13.60027356738736       24.54910121661763
N           22.63323040906657       21.84062085512042       17.21043405673372
O           21.11186973333194       18.74397990196113       19.13600705529028
C           12.59303243717610       13.98832262750703       23.79231154538391
N           25.98456413652121       18.55426229262676       14.76553684944454
O           21.84816080067698       22.88546753625270       22.19315540032388
C           12.45495532312384       14.98678041885626       22.82980464752520
N           26.20116940140147       19.79177720517118        9.14403010036769
O           16.01797704238870       20.77208499631471       22.27535626121587
C           13.62076247223039       15.41568701368252       22.05330072447981
N           18.64384478996550       17.44886696989114       19.67464997285909
C           12.76198591594217       14.51767053229038       19.87192561196595
C           13.41139729684101       13.16753128206307       19.56846712107357
C           14.79408984482935       15.98233535096820       22.50851039428558
C           15.23409124165582       16.24206296116155       23.91602240380435
C           14.70345959091834       17.54431840233467       24.55597051394179
C           15.36037277858682       17.73113247924184       25.92525326336958
C           13.18829066646620       17.47359549415338       24.73662673709899
C           15.00258317114115       18.75034362591121       23.65867518121882
C           16.72354664638173       20.22468211072610       23.09524491941269
C           18.09105637035136       20.75191594751941       23.49713570964069
C           20.84583509395988       22.21799918463649       21.96974847696132
C           20.75449188460840       21.22833221647357       20.80216280190585
C           21.28852453065834       22.77210547797889       19.01953119674735
C           22.29259787682716       23.08276622532443       17.90256354968780
C           21.89563438778027       24.22337257912422       16.94088907489347
C           21.92092596123713       25.55182206683939       17.69551178245242
C           20.53821362016175       24.03462093614354       16.26346389440266
C           23.93490658172200       21.57886414687400       17.02805928335069
C           24.37453986606986       20.19500299443862       16.49532437259296
C           25.88156657265026       20.02672747176126       16.70776204008743
C           26.38115009381661       18.69261967004457       16.14777265609892
C           26.87824659854072       18.69932397407250       13.76785094747180
C           26.30472184116314       18.75408220151099       12.44659603886211
C           25.88610713026435       18.90916355934006       11.32874208916228
C           25.26298576407303       19.08316108818590       10.02109955660973
C           26.79687282251267       20.97692965541418        9.72638303845202
C           25.68597112747987       20.08071543952109        7.82075233831983
C           24.99527485627349       17.67288965079549        9.46102957701869
C           23.92302770045847       19.81377316248070       10.25939734794307
C           24.55518116046180       18.59790144682532       14.57914938382067
C           24.01600148801987       19.95928318713624       15.02706501017796
C           21.53066116427566       20.98705167822521       16.80711306773478
C           21.14619183416656       19.83394967925275       21.28765780850653
C           20.59164429933610       18.67906358866580       20.45162511451943
C           19.05805585638702       18.63151038939270       20.40889384450097
C           19.18793582108787       17.47771236516144       18.32894925224644
C           20.71115893770136       17.60080756656976       18.41076053341029
C           19.64392779989729       23.14458199435493       23.89690101185747
C           19.20762445595311       22.31285848943685       25.10023250510786
C           17.90018706302645       21.59320400252214       24.77380158321740
C           15.57012218902198       16.27909973259611       21.34514348721804
C           14.80828573744190       15.86346000992545       20.22893605516868
C           15.28203243980879       16.04446483103711       18.93783621923706
C           16.52151872775842       16.61897004485510       18.77027343140923
C           17.32951589318915       16.98680638030525       19.86321330294145
C           16.84023596117506       16.81921444249129       21.15163417791375
F           23.73826369538272       19.21246983527871       17.27661786656399
H            9.75715887683682       18.50188220830597       21.54823813851754
H            9.20105110456053       17.38683573053919       22.81907478474700
H           10.66575239657125       18.34203043371654       23.05741926395713
H           11.86358379193588       17.10950260475972       21.34389293601942
H            8.30125049023528       16.33938098198838       20.93736713681299
H            8.79484822892374       15.29455358309939       19.57864521593849
H            9.04714238782078       14.75488816244337       21.26478734944533
H            9.39618713275549       13.96496102429034       24.85317195725494
H           11.58308289545877       12.83064015415491       25.29901917381080
H           13.55438647572808       13.51647220470397       23.93044189845874
H           11.82474760837240       14.36675233938527       20.40528613731509
H           12.53945326034256       15.05236384275878       18.94574987444044
H           13.62414498052677       12.63752560459295       20.49408218604951
H           12.74173660320680       12.56372718889165       18.96387132583467
H           14.34479109565232       13.30823374129460       19.02951396255251
H           14.93154389635499       15.41407017321428       24.55878105832242
H           16.32385737483291       16.28606909459736       23.91635415387470
H           15.07143944655805       16.91893553131681       26.58593166888715
H           16.44193808135342       17.74172728851711       25.83687550479526
H           15.04034374837478       18.66869912236740       26.37165844178839
H           12.83032420658357       18.32312945334895       25.31162229444375
H           12.69076318074077       17.47423628924405       23.77255891944875
H           12.91312484571844       16.56409084464454       25.26555918988266
H           14.36930216522008       19.60023383941644       23.93240739269933
H           14.81220983203996       18.51508877122137       22.60681534922636
H           18.77404165887799       19.92134410804856       23.69820919230671
H           17.86924637366566       22.15220516664740       22.04672864399876
H           19.71922476046629       21.24853419906782       20.44974092976918
H           22.46510539557681       21.18719558742191       19.56295978597856
H           23.21485841353564       23.41042528211915       18.40352943822980
H           22.67643341713186       24.25046243385874       16.16969040188191
H           22.89607978976921       25.72266268687848       18.14604815053048
H           21.70671595368391       26.37220870450816       17.01714717422109
H           21.17058394117003       25.54560429139383       18.48244606666625
H           20.53562064261864       23.17202501524807       15.60716722905486
H           19.76095188434439       23.92220508329885       17.01390246985031
H           20.31136465058460       24.91404707906256       15.66689233555734
H           26.38876544614233       20.85670934909594       16.21534422136925
H           26.10008282956206       20.08572854813796       17.77334201364422
H           25.95369623970900       17.86453358523291       16.71981245666861
H           27.47031750136194       18.64878750446981       16.19763028198060
H           27.22011661431508       20.73754542836013       10.70003136384394
H           27.60450271226800       21.30685496145463        9.07334418866786
H           26.08653474029720       21.81004820581951        9.84095812987125
H           26.52169957188442       20.39691737403161        7.19637280177677
H           25.25430225453998       19.18573133472304        7.38363999647571
H           24.93630389752795       20.88637836690896        7.81536552691773
H           24.25004581921497       17.70496467203597        8.67157579239718
H           25.91921472831545       17.25921378596390        9.06781035619225
H           24.63498973340621       17.02440165812164       10.25350693663071
H           24.09174394744981       20.77163401659819       10.74725998329571
H           23.41108262400698       19.97973865527301        9.31565950894768
H           23.28618375045185       19.20733513413171       10.89739023976118
H           24.31755347400649       18.42124255628299       13.52957732895050
H           24.10707958753952       17.81039437371578       15.19497327172012
H           22.94079255727687       19.97930605970540       14.88075926614325
H           24.47357937848160       20.75461835450702       14.43787919929705
H           20.62124104677791       21.36137603560072       17.26988487234733
H           21.39819389004874       21.01417925381086       15.72470658722003
H           21.68026273136723       19.96518895223014       17.14850524874489
H           22.23467258573240       19.76479674028431       21.29599393464310
H           20.79113196907788       19.70298695101193       22.30765665693535
H           20.93665482926095       17.73571994988007       20.91114067068168
H           18.67088557511388       19.53960723410681       19.91994544778221
H           18.67018074435889       18.60063963401744       21.42382825977267
H           18.95207556455661       16.54151097086485       17.82499678650553
H           18.78604128474757       18.32354555127988       17.74906940729807
H           21.14092949612987       17.69797312520631       17.41391458098400
H           21.11929377967319       16.70347800532963       18.89589207494996
H           20.62384494358779       23.59738693638425       24.04591371883514
H           18.91128345004485       23.93317106935041       23.69099047760102
H           19.07142161374326       22.96176816454899       25.96451180050075
H           19.98295127495021       21.58344461119128       25.33542583291143
H           17.11188441240528       22.32765043929970       24.59454412752637
H           17.59443425290585       20.94816902482462       25.59512420587487
H           14.68921312848757       15.76588974438941       18.08091311652702
H           16.86456661125089       16.79174000526929       17.76382675091362
H           17.44317946838940       17.08395134046981       22.00766910011296
