151
 energy: -221.319851365494 gnorm: 0.009483966763 xtb: 6.7.1 (edcfbbe)
C           10.13500676497292       17.18555070108918       20.99765316699134
N           10.29409884660669       15.02549403770016       22.80615470985335
O           10.81407186323659       15.07866629919425       19.92255938170582
C           11.19630235983583       16.09240243508449       20.85318114422175
N           14.30981011217394       14.89352664199266       20.83466774890181
O           16.30433019673771       19.75808105392225       22.98422818349286
C           10.68518132183203       15.51776160355607       18.58681699365451
N           18.71893052888403       22.09157907214712       22.44374017992214
O           27.14327872660063       17.86754910606908       13.67583922911715
C           11.40505722671141       15.37861235428044       22.17615436732573
N           19.92472714035040       22.61394795232722       22.91517855000335
O           24.74571566422395       21.86012286006513       17.03340968213245
C           10.37585155269609       14.39633627300759       23.96448572714523
N           21.85581936505784       21.50452843269867       20.17487573739592
O           20.86198612501698       23.49322722010857       19.88000764361374
C           11.58187419942660       14.08965451392998       24.57572472948563
N           22.56880835776167       21.58769065600907       17.51929636671527
O           21.82668536596471       18.55730361751973       19.96731368347817
C           12.74579332167871       14.45148848103261       23.92432098404893
N           25.00728315617440       17.98762355002317       14.44757253833986
O           22.16486114317833       22.75320640651173       22.71356202548809
C           12.67925777829360       15.10470137513131       22.69342354958199
N           24.79724770785729       20.51342817262824        9.50468136378056
O           15.89403963166583       21.91809939020481       22.52218523444650
C           13.93649277181413       15.46664396825411       22.03017270122775
N           19.35568086308251       17.15498856601602       20.30044338219950
C           13.69232234185557       13.73704358377952       20.23388946140807
C           14.19335979099501       12.44685917817371       20.88541775382537
C           14.91738241117665       16.32571574792804       22.47704652996474
C           14.93866702738745       17.11379830422328       23.74821832858846
C           14.30201491435409       18.51979259527765       23.67584952393705
C           14.45088857593512       19.20737745382140       25.03580729560311
C           12.81924430652451       18.41633731876372       23.32459983551648
C           14.98119140693747       19.36377163333798       22.58714896003903
C           16.61888743768856       21.03277967751689       22.92691593220064
C           18.01564276525570       21.31116978716656       23.45904790027878
C           21.09628622004870       22.27206903794815       22.35599364145540
C           21.01325148507282       21.16812126687247       21.29953240358756
C           21.68754061142053       22.66092611659522       19.52244618946903
C           22.61257488685698       22.81610067378396       18.31153325897263
C           22.40001635351146       24.08579579436061       17.45621745960064
C           22.75150053137434       25.32135752577947       18.28402067949897
C           20.99499216675826       24.21497508147801       16.87461283504824
C           23.72641967535263       21.17040069610343       16.99147482953818
C           23.81423045749986       19.78122682837231       16.33523751873700
C           25.22460461106286       19.22081593614664       16.54253868605084
C           25.39343648564970       17.87354863315863       15.83596845431660
C           25.94528481956073       18.07379646995540       13.47954596248520
C           25.41711002344564       18.40183637604295       12.18103026871546
C           25.04747090841991       18.78018078569416       11.09984094390588
C           24.41166225352742       19.13443706077394        9.83331669634298
C           24.46432918750503       21.47733628462726       10.53629320150321
C           24.35266604962517       20.98352268945795        8.20960400745922
C           24.94626209474035       18.15589055401242        8.77764415906078
C           22.89198302959356       18.92147228665930       10.01750028973020
C           23.63757777517842       18.40725420242177       14.26635523448099
C           23.44996404841640       19.81255526368283       14.84771944446301
C           21.28200493214166       20.92807541374141       17.37118978484552
C           21.47271005918310       19.86878262052829       21.96149912250409
C           21.12150485775139       18.59072192699632       21.19761391378741
C           19.61424313893199       18.42703811244768       20.95556417960384
C           20.10656213712727       17.09112159603110       19.05806279776408
C           21.59272694976264       17.31424836417075       19.33772175684261
C           19.85633480160423       23.43719597621238       24.11073816264011
C           19.25036425254551       22.59296840421687       25.23215739022289
C           17.88351255055829       22.06912785304204       24.79366553186164
C           15.96667900365773       16.27349885591798       21.50814801571434
C           15.55884593069748       15.35471656693680       20.51640171329564
C           16.39663670412252       15.06692047637281       19.44934967002922
C           17.61901848238463       15.69542306491437       19.38434901791824
C           18.06263805276559       16.61339178780570       20.36153444303093
C           17.21150925791628       16.89693191351639       21.42384207876292
F           22.93211686661930       18.89872175930426       16.96471718625202
H           10.09686659652218       17.80761685719550       20.10735033305710
H            9.16852274460744       16.71794685682082       21.16198383092626
H           10.37112977449159       17.81108337417638       21.85307237414563
H           12.14878882838335       16.53558402371037       20.51510485636778
H           11.58828600598209       16.04507109847858       18.26130702661823
H           10.55114057867976       14.61691053826471       17.99214041348033
H            9.81699850756757       16.16917128199196       18.45752215118699
H            9.42951636132934       14.13372267880050       24.41667512578507
H           11.60365023080503       13.57972099220550       25.52456753878417
H           13.71250789149430       14.21875939043860       24.34639960928630
H           12.60842168229081       13.81153288513646       20.33940381647079
H           13.93735646556494       13.73789493989994       19.16935206888154
H           13.90636067784181       12.42058129645180       21.93459673579197
H           13.76121008043775       11.58639610744880       20.38380865097641
H           15.27735630930188       12.38869322382095       20.81939190469965
H           14.41351237128331       16.55763309010262       24.52766481166566
H           15.97951618195405       17.22941893750033       24.05608335105392
H           13.89889291762034       18.65698832049004       25.79331401395941
H           15.49551159867127       19.25230066630808       25.33454873113755
H           14.05904168542244       20.22127938691400       24.99089333746424
H           12.34582695102095       19.39289064797219       23.37091872080293
H           12.69487236824374       18.01455855837436       22.32330123587098
H           12.31284012928999       17.75845851538617       24.02635965912964
H           14.40004263532975       20.26904059697768       22.38408854439792
H           15.08289304082986       18.78264343805747       21.66614238939678
H           18.55617482454909       20.37065358693505       23.60082556108057
H           18.11810705655679       22.84713465187798       22.12217214907653
H           19.97181662477553       21.11181258209010       20.96959588542496
H           22.52776986590684       20.81632290775780       19.87099956640349
H           23.63567773923810       22.88913969044964       18.70642960341354
H           23.11898038526445       24.00862669457303       16.63164274827086
H           23.77993299119145       25.26474705642531       18.63977998117517
H           22.64001404545801       26.22274389155175       17.67952464094616
H           22.08629019096974       25.39169481077771       19.14493036765929
H           20.77637088137636       23.40700393969248       16.18204414276326
H           20.25861161104654       24.22293034272478       17.67374921871624
H           20.91816380734245       25.15397332699351       16.33176252394731
H           25.93892263798300       19.94847762626862       16.15833032662233
H           25.40334888920677       19.10062198624894       17.61207604628153
H           24.76268405098633       17.11854968435212       16.31303494361163
H           26.43640046835851       17.55798383290427       15.87719038478765
H           24.76975892550787       21.09319738306474       11.50754203622810
H           25.01807608780773       22.39465632294495       10.33852554138035
H           23.39225500658424       21.72503678294454       10.56733631828113
H           24.80923431925277       21.95695004771569        8.03454488093196
H           24.68807856408220       20.30820801165566        7.42868989849894
H           23.26055138738034       21.10337577113098        8.14227714968489
H           24.33244222349715       18.18015358182527        7.88197615710930
H           25.97206019243663       18.40967851129437        8.52555886131439
H           24.92628611636932       17.14571678488783        9.18082158171309
H           22.50824866630482       19.55774334676037       10.81167481882010
H           22.36865604216543       19.14974383982205        9.09359414937352
H           22.70034951452799       17.88438241213531       10.28223043651408
H           23.38594257262237       18.39403306669454       13.20782057352133
H           22.99197100369303       17.70578483352357       14.80078565315736
H           22.41646484211283       20.12927750797909       14.71599405691867
H           24.10571609337219       20.52365066626247       14.34462913924698
H           21.11833002890351       20.63985027710286       16.33671879669449
H           21.21514858367541       20.04453742149522       18.00248942292477
H           20.50616709893074       21.62772122517838       17.66465155869395
H           22.55418340483688       19.92226766846066       22.08506365844625
H           21.02640975936934       19.80054383342159       22.95255069571079
H           21.45605022408191       17.73304386816680       21.80581505341567
H           19.25155874941265       19.25482363176395       20.32750049896061
H           19.11572547825077       18.46875154848566       21.91942531252940
H           20.00856422088862       16.11229490212873       18.60153052694640
H           19.75546359826405       17.85900868168465       18.35262632523470
H           22.15053640141178       17.33193211586372       18.40518016026773
H           21.96855516796931       16.50459705084256       19.97738089180112
H           20.87361629001525       23.75363691381449       24.34208129620450
H           19.23782906173832       24.31776840924008       23.90883788048844
H           19.14904543101169       23.19423341200532       26.13473327999550
H           19.91854039411794       21.75660803169574       25.44598704659167
H           17.19577370299001       22.90602771581110       24.64836163777285
H           17.46552005509946       21.40553374711495       25.55049139376432
H           16.11083236601566       14.36767369032287       18.67896334042975
H           18.24345999768013       15.45533863083476       18.54135264456439
H           17.47803802011617       17.58466576278126       22.20774254922551
