151
 energy: -221.319285987715 gnorm: 0.004042921781 xtb: 6.7.1 (edcfbbe)
C           10.14962804595645       17.81189743713563       22.34891348197643
N           10.17392393880757       15.10342546100184       23.21684226217975
O           10.49791690427782       16.34279787957720       20.40441951533819
C           11.01835808439522       16.75378138895128       21.66887158584089
N           13.79879080982045       15.34247960582200       20.65406910357297
O           16.28146304547183       19.27196336658816       23.75914371497550
C            9.15814900103719       15.88452404394232       20.39247785882062
N           18.42094847069400       21.64861527011076       22.20582285171046
O           27.83815900840196       18.23402888913594       13.87192462746803
C           11.24579106916770       15.55725392017708       22.58040915653168
N           19.46322495849832       22.52480379960423       22.52268675718144
O           24.89227898230005       21.95519236651576       17.31638034860789
C           10.28642367158008       14.06556922929738       24.02825900867888
N           21.64846349768795       21.65413658800323       19.80503970363204
O           20.50855287441297       23.50232258052170       19.24656059558590
C           11.48923072973037       13.42391180447340       24.27119428343274
N           22.67279967324870       21.61334467673606       17.24756905333431
O           21.35331449490957       18.73589076510024       19.53071296166124
C           12.61365822488932       13.88414194057835       23.60936877989978
N           25.69961957774454       18.13614597613849       14.63447770798927
O           21.58342293037107       23.18786735598415       22.13630002621890
C           12.50968743178188       14.96209718059257       22.73263099208845
N           26.04758665703885       20.11653504405167        9.26189246451238
O           15.87344346932553       20.71198682999478       22.09589270529320
C           13.70641464951564       15.43086566384777       22.02541444828513
N           18.91063007646126       17.35422336761937       19.97759934115987
C           12.93689542082032       14.57596076787783       19.79121631567710
C           13.48378373343035       13.16586259255386       19.57304650305310
C           14.85505069386378       15.98581483065163       22.54704881163994
C           15.22329729649490       16.25133719176308       23.97279285021751
C           14.69502407799958       17.57479752751435       24.57426681578773
C           15.38218089606791       17.81579914058057       25.92054867467520
C           13.18454038193114       17.48071945773073       24.79262777254787
C           14.94566587402698       18.75858613591322       23.62943728994145
C           16.59053645005842       20.28450632835094       22.97477405590402
C           17.90236014232288       20.94088352945340       23.36771847997903
C           20.64510406604650       22.44225700577997       21.88843427335345
C           20.72251485249623       21.31047336780258       20.85888537064670
C           21.44032221838961       22.73347815438296       19.04178286577982
C           22.47464371348135       22.89643276533713       17.92171759170133
C           22.21739405407249       24.05969774226515       16.93872902639045
C           22.43962744780013       25.38403757419915       17.66819931873187
C           20.83616097207842       24.04712636629142       16.28620993899601
C           23.93961038470628       21.22801366983837       17.03466507232023
C           24.23764778880848       19.83286495320245       16.43924307509140
C           25.71850555594721       19.50069386799655       16.65092279877343
C           26.07847423424893       18.14955223077309       16.02838139786947
C           26.62551038735275       18.28974676731630       13.66611682482170
C           26.08325415712280       18.52389550473419       12.35267220138324
C           25.72484866851526       18.85675957571440       11.25186375408778
C           25.11422480785715       19.24388121781192        9.98392998567472
C           26.58513960934209       21.20367499609238       10.05247966656719
C           25.56579487870196       20.60226106683405        7.98599277904375
C           24.88414185585858       17.94882107650698        9.18529537029685
C           23.75417057626266       19.89479774908316       10.32303937555718
C           24.28635544294449       18.34005818439256       14.43002245130019
C           23.87263096763483       19.71812580783358       14.95722606255825
C           21.48190660497374       20.88417636858449       16.85007311524863
C           21.14252117739709       20.01766454837731       21.55736294840230
C           20.73738506819544       18.74762328062173       20.80790412541268
C           19.21803668266322       18.59509850982444       20.66949754475541
C           19.55909958020623       17.32372288251505       18.68058822682682
C           21.06346695187780       17.52066746788510       18.87439675384572
C           19.19925073099724       23.50411700886714       23.56274233516639
C           18.80287503276925       22.76643656864565       24.84018161647026
C           17.59223109761257       21.87929903219502       24.55538156452247
C           15.70936926378715       16.25440018847383       21.43304707003439
C           15.01850568576420       15.82962146932474       20.27515415579632
C           15.59630214636859       15.95414082863799       19.02030977424182
C           16.86034948817312       16.49373861932350       18.93310787431889
C           17.58406563976354       16.89510299115924       20.07223226291210
C           16.99631758791630       16.77414925184640       21.32347525252405
F           23.49740675681881       18.87673117569051       17.14975480685891
H            9.90722034285541       18.59439214066467       21.63426521041980
H            9.23715535111594       17.35901894434742       22.72412371987073
H           10.68972328507713       18.25015208975464       23.18229658273161
H           11.98976166416675       17.18698900065610       21.40010658990810
H            8.45395340527827       16.71672630640331       20.47050458809705
H            9.02986580268294       15.39166037200538       19.43077726588048
H            8.97346709483602       15.17498811207731       21.20282756420762
H            9.36780029566728       13.74742435650113       24.50191131545138
H           11.54075157914206       12.58759292249152       24.94906973297829
H           13.57309867731557       13.40879480800847       23.75067835241552
H           11.94415928543294       14.52740775545565       20.23821567930332
H           12.84846961607777       15.10334680162922       18.83829931673738
H           13.55034054516724       12.63838690136235       20.52179829480579
H           12.82553236060281       12.61290110606725       18.90997688992426
H           14.47644701340050       13.20869907625620       19.13125003421574
H           14.86177810844454       15.43850867242671       24.60575237578900
H           16.31280050152033       16.26235077029290       24.03119638667770
H           15.20617890821100       16.97098007008684       26.58143534356967
H           16.45392108791757       17.93779850498159       25.78841729566063
H           14.98775342433025       18.71261941424039       26.39254554936327
H           12.81319511793473       18.37237657322427       25.29216317862093
H           12.67311028284749       17.37668622823542       23.84148343192633
H           12.94373036343238       16.61869968838082       25.40864449145901
H           14.26034181933483       19.58053191776914       23.86160983537699
H           14.77985452386325       18.46975860998621       22.58665510254159
H           18.62847067466641       20.18361540001316       23.67700394930955
H           17.65225331078060       22.15171587213067       21.75804383669871
H           19.72100897925340       21.21594066598820       20.42847183582198
H           22.39001387845757       21.00328999452496       19.60499470211690
H           23.42907832219334       23.12159872312476       18.41872319424079
H           22.98063495918659       23.96529706413601       16.15622335089485
H           23.44697648505766       25.43498115036757       18.07572418502953
H           22.30094065063058       26.21771688879367       16.98520824695061
H           21.72907466404349       25.48021012231097       18.48511960567053
H           20.69298277136410       23.17147006736258       15.66341255554715
H           20.06569453843819       24.07631339974972       17.05047439729009
H           20.73007173717703       24.92822300433165       15.66073989881427
H           26.31278199403706       20.29604680528275       16.20095482113445
H           25.93133987946205       19.48648374064944       17.71979498678421
H           25.54733987913374       17.34686626316231       16.54762488608791
H           27.15390784815606       17.97894487782947       16.09511183579553
H           26.99055831614518       20.81547612718883       10.98531036081407
H           27.39742541717284       21.66546264407699        9.49177095374370
H           25.84359356872084       21.98446044468295       10.28455183329069
H           26.40870174313496       21.04886483747776        7.45894821753622
H           25.19033067123431       19.77786525293125        7.38789628173261
H           24.78193163222348       21.36901831300707        8.08077092630761
H           24.17250864700130       18.11296111620953        8.38166094965224
H           25.82704585064991       17.60480994473533        8.77082481497755
H           24.48840926423400       17.17913758592290        9.84292117433645
H           23.88914696563912       20.74055638943212       10.99302267867686
H           23.26668676146831       20.23447082567846        9.41356633608369
H           23.11294308985698       19.16484586689425       10.80874677145005
H           24.05441950349458       18.25658390815539       13.36922546279555
H           23.74800120614748       17.56384139031539       14.98159947980123
H           22.80316004900207       19.84358448859071       14.81267135892568
H           24.40316159417292       20.50070603383447       14.41383712546751
H           20.62591331335012       21.33801797772313       17.34045838043141
H           21.33050180222238       20.94617297387551       15.77255636838386
H           21.53697276291647       19.84494249920319       17.16036487411634
H           22.22676292485286       20.02947113258965       21.67817242322231
H           20.69258284477886       19.98314229118742       22.54774337428804
H           21.10908722951109       17.87779932350277       21.37640175354552
H           18.80449846308161       19.45177062718002       20.11428592034526
H           18.77132711166410       18.58897525796650       21.66067685978564
H           19.39861162232935       16.34781334238972       18.22284825465979
H           19.17514831990384       18.11412059686477       18.01378294697216
H           21.57465851160030       17.55947863439143       17.91350698704847
H           21.46396243121153       16.68383030159777       19.46355686188040
H           20.10622693420455       24.09327147733317       23.69237976669455
H           18.38629448810490       24.15845457705835       23.23051119592853
H           18.56318993869226       23.48690307064335       25.62054930459796
H           19.64192782579222       22.15559727317621       25.17518157393927
H           16.73368581844593       22.50409126279850       24.29619017067707
H           17.33564531630281       21.27992548433591       25.42788870179582
H           15.07356055642734       15.65167722413785       18.12574767529420
H           17.29088435740969       16.61290193414809       17.95278154908171
H           17.53131273875594       17.06423961552591       22.21423238214161
