151
 energy: -221.329269204874 gnorm: 0.007635343818 xtb: 6.7.1 (edcfbbe)
C           10.14546836730606       16.28315774718288       23.52988886483381
N           11.42864911725251       13.78842372361878       23.86857011982566
O           10.42087915725541       15.09821117947862       21.39521082698399
C           11.10393666064858       15.72976286040130       22.47595191021952
N           13.63247870425242       15.68278380646424       20.56183504181359
O           16.88054612774322       19.48451971282310       23.78265343939810
C            9.78802798686574       15.97973525915678       20.49315635733479
N           19.17812133356576       21.69540182586632       23.46679293068924
O           26.83179858355914       17.30405651670837       14.80182727891093
C           12.01144533101535       14.67140774487541       23.07233129947261
N           20.55644515130018       21.93877139771991       23.39861967890703
O           23.52757238349803       21.32676145188157       18.05763645852077
C           12.15777777263747       12.83756898365906       24.42727930965746
N           21.08790428802633       22.08064044715114       19.82808590698571
O           19.34251568650461       22.97822271938657       18.70629548504644
C           13.52726452451062       12.72757527932527       24.24398800414666
N           21.69386522545776       21.83429602843699       16.86746800852598
O           19.74915228369774       19.56015592014730       18.62910010724642
C           14.14514550478419       13.63852132696887       23.40614086283438
N           24.68373572402652       18.03701782106984       14.79380720141193
O           22.41870976641410       22.12342402340096       22.14947831671575
C           13.38697008225228       14.62942714871004       22.78514593470020
N           27.03324529943124       19.62304648400863        9.87120688560952
O           16.68639910680054       21.29774280456001       25.09444732851844
C           14.02368917565074       15.58791626188944       21.88013427421167
N           16.91241622815619       19.81510986296144       18.88851895927310
C           12.99352143878319       14.63697579667497       19.80057328091986
C           14.03654600508347       13.68076462685166       19.22591576918105
C           14.99107660642842       16.52719689512058       22.16364982373818
C           15.69043420999829       16.72516122710728       23.47002676361718
C           15.14134167943097       17.85508102790449       24.37161179844265
C           15.78673401642116       17.73043189859947       25.75569093045276
C           13.62183444224871       17.74761351167233       24.50000596629345
C           15.46398034803080       19.23902829248035       23.78667580180213
C           17.35210174979330       20.50180972833055       24.47001340973855
C           18.87292054193627       20.58767140782089       24.37856968000158
C           21.21258950688053       21.91976861863618       22.22764173190450
C           20.36797887549103       21.61241896783759       20.98877665718644
C           20.53658848040321       22.71501376277370       18.79120905757532
C           21.53973391476944       23.04718692571662       17.67666142452991
C           21.13296355126255       24.27299633037519       16.84783139303032
C           22.16952058582824       24.54831307373796       15.76039248135980
C           21.01301536246420       25.48872688078080       17.76511215647042
C           22.72234722183861       21.03504367583519       17.17005543895381
C           22.97364695957448       19.74763097873076       16.35447797663798
C           24.13518698266329       18.97734222868463       16.98516229244015
C           24.46234644217483       17.71881852163496       16.18577641303162
C           25.87187614939540       17.79942367761304       14.20830561374548
C           25.93458818111610       18.12249171305650       12.80625389564150
C           26.09245205475894       18.32388528016590       11.62993952260735
C           26.10852754289979       18.52718892835712       10.18367078013534
C           26.78889366726179       20.83947357789957       10.62037440660950
C           27.17640501916071       19.91860337974714        8.46147007219874
C           26.62186615585238       17.21006219380803        9.57588495262628
C           24.65031506872299       18.77231677837097        9.73811425317369
C           23.57239302622123       18.70282252718197       14.15960546598300
C           23.26699097958792       20.02286518700761       14.87705273401994
C           20.59680004066900       21.54246136864519       15.96935090243433
C           20.14094363597396       20.09222852937318       20.95008061735910
C           19.13607586504757       19.59392922629685       19.91232027784941
C           17.83481678610652       20.41017382056905       19.83728645699427
C           17.55501525803578       19.75815807388230       17.58735263910206
C           18.86884395453935       18.97514143640982       17.68832233711512
C           21.23547402697657       22.19581938896053       24.65921878933225
C           20.99097991692636       21.03706156108122       25.62374122446023
C           19.48975978231366       20.79351513210452       25.77036339607562
C           15.22818497028384       17.23790444956983       20.94736068176931
C           14.36570066152403       16.68144531092950       19.97801700533511
C           14.33481600486484       17.18385418083684       18.68369535054717
C           15.18194013007355       18.21651825346846       18.36643858595145
C           16.10868179263441       18.74539382243232       19.29177413217597
C           16.11987829635070       18.24890403579201       20.58816568156802
F           21.83840814852008       18.92505279585742       16.42913184630740
H           10.71649805884415       16.70339898127388       24.35206042654967
H            9.52011005045293       17.06215325641898       23.10231734532435
H            9.52122796257434       15.47612535986005       23.90051481847868
H           11.71954556342024       16.54888442352376       22.07169392330123
H           10.48380014665600       16.75406905162329       20.15085501534990
H            9.47977603554270       15.36620719484127       19.65156348503862
H            8.91084545882510       16.45529026488706       20.93730796446648
H           11.60996550999041       12.14260935301235       25.05017114438197
H           14.08682753047419       11.94494378178827       24.73002084891103
H           15.20651662853425       13.57977637722155       23.21042989711692
H           12.29532491786808       14.09952592908101       20.44594563797488
H           12.42466248231994       15.10212417682273       18.99267959903820
H           13.55252470569649       12.89584946795494       18.65493028638523
H           14.72086071959518       14.22030400155246       18.57523418118312
H           14.60992515734388       13.22672140502500       20.02991011834046
H           15.62415648777932       15.79899339409940       24.04325944287761
H           16.74357994648125       16.93021853848692       23.27143513564224
H           15.41319027874680       16.84826620682454       26.26551691585483
H           16.86730983215456       17.64825964578532       25.66868089787848
H           15.55620550398919       18.60159602735441       26.36578295071324
H           13.34640793010067       16.74945946019940       24.83145827865431
H           13.24889506724703       18.47034456409386       25.22139318349136
H           13.14449249111716       17.93489929391085       23.54160686967684
H           14.98219804680920       20.02155472541953       24.38046693294203
H           15.12639815348586       19.30524977192604       22.75125205209216
H           19.25100520666932       19.66350089035045       23.93069891376864
H           18.70695559497744       22.53650219519638       23.80851449057437
H           19.41685615095665       22.14407973859847       21.04782107058523
H           22.08246698794551       21.88327159012367       19.82638843275993
H           22.51580226313848       23.23973975077910       18.13320940980076
H           20.15416028214970       24.09245838129006       16.39850688212469
H           23.12366605943958       24.80833004150020       16.21493796666480
H           22.32738128016767       23.68444305641205       15.12106612575501
H           21.84352836086653       25.38102643643777       15.14405573558940
H           20.23457080650476       25.33385723066255       18.50684803311148
H           21.95341963341908       25.67347868560503       18.27892679108648
H           20.75839451312768       26.36784361207928       17.17929832663512
H           24.99664228327855       19.64145010542408       17.03245069267528
H           23.86567059955663       18.70512465933528       18.00557610751308
H           23.62813986411118       17.01278180269909       16.25685386083083
H           25.36708895561954       17.25062184570185       16.57454572151528
H           26.65518990164144       20.60051889989227       11.67079238854588
H           27.66081793190385       21.48215524420191       10.51972266206791
H           25.91091840479728       21.39774803363929       10.26605741536386
H           27.40868291658112       19.01419854161223        7.90789139649483
H           26.28372933488352       20.39154726014834        8.02622726999447
H           28.01214398233632       20.60906282078260        8.34966634765464
H           26.11420393221177       16.37498641116444       10.04559720314767
H           26.42762031690408       17.17021201089396        8.51235719727071
H           27.68705081614357       17.11447017068591        9.75229582945486
H           24.26081463187912       19.68314337029076       10.18695285382131
H           24.60156951919029       18.85998996865117        8.65656966226219
H           24.02820080420505       17.93942077316532       10.04959164172975
H           23.81227065854074       18.88902896140108       13.11319723832830
H           22.69469222179357       18.05009543584538       14.21943240577606
H           22.41624777116573       20.49717005002304       14.39423624904530
H           24.12734327592490       20.68991038469836       14.82063951219300
H           20.57295129303412       20.49504957937384       15.70362855091525
H           19.66625078778797       21.78253952425222       16.48094089466466
H           20.66860797870042       22.14870331000896       15.06670398550590
H           21.09917415987501       19.60811693866355       20.74999776980101
H           19.78283126940151       19.77841477598049       21.92687385032349
H           18.87688983007108       18.55258648143420       20.17969764365028
H           18.06742765757134       21.41041233968286       19.46076618184334
H           17.37105338686739       20.50276382264593       20.81729884835934
H           16.91246220628897       19.28639239373240       16.85016822359484
H           17.76023374314013       20.78625489619143       17.27770417839491
H           19.40235997493270       18.95520687006244       16.74187978463783
H           18.64572875480551       17.94030707883577       17.99567307591289
H           22.29533605549083       22.31813602873092       24.43616755927093
H           20.84458496995501       23.12743395824932       25.08274825146303
H           21.43083061213262       21.27818052747002       26.58859212549622
H           21.47360789249117       20.13791499354398       25.23902307406460
H           19.00602280636348       21.64957548858851       26.24545243702597
H           19.30460765682871       19.91383271606017       26.38575876461350
H           13.65486341905000       16.79185379313368       17.94300372908480
H           15.12215719804250       18.63967718787185       17.37664723944970
H           16.81248080911832       18.61245793860526       21.32930498594618
