151
 energy: -221.327968140026 gnorm: 0.005066322237 xtb: 6.7.1 (edcfbbe)
C           10.21362032525374       16.24271049416861       23.43913444802437
N           11.55441435661588       13.75861739630079       23.91891220562865
O           10.39800077131914       14.87862280775677       21.35194541109395
C           11.10028555704230       15.57662709915797       22.39439969307423
N           13.77282133365910       15.61299305711090       20.46342004337006
O           16.63168255016589       19.56472304728063       23.59205788632047
C            9.06037165534606       14.47965804300456       21.58677183299381
N           19.01723533395944       21.84830541726546       23.38205564485689
O           26.16159549390960       16.73995344134367       14.41446800848484
C           12.07670231576821       14.60922593482584       23.04548778887258
N           20.40133789370336       22.03375524345405       23.48756868615473
O           23.82066656529894       21.44650902834278       18.04723699655323
C           12.33634346248962       12.87501014829443       24.51549810419814
N           21.29465478002275       22.14840493509168       20.00984097077740
O           19.63919544265555       23.10646222961901       18.81044189979912
C           13.69671096986866       12.78182614285429       24.27124889223228
N           22.01420688486079       22.25171045465339       16.98095621442983
O           19.94810476360536       19.68483768836696       18.65717661799013
C           14.25089765248543       13.66044533347619       23.35815682933505
N           24.45998834733841       18.23652085589877       14.53532371959886
O           22.40392640575493       22.11523223074231       22.46159545115949
C           13.44341233844406       14.60292982401936       22.72211122408883
N           27.01255775752974       18.98791041509570        9.51340408613206
O           16.33589895150171       21.57383166100606       24.55351054298666
C           14.07194100056445       15.55850115539964       21.80398614325901
N           17.09637231187637       19.76852082588650       18.91555256464360
C           13.03687184082196       14.62710705692720       19.71252348797617
C           13.97547747153710       13.57055736966390       19.13300914550838
C           15.03004571453326       16.50066329789273       22.11863818512790
C           15.60972478962690       16.77318601382888       23.47043272564821
C           14.94951072879092       17.93523510590861       24.24880146090048
C           15.52568765779728       17.97164126214197       25.66739206756475
C           13.43585385353247       17.74679311139979       24.31569981822929
C           15.22724499422373       19.27823368554821       23.55676165190197
C           17.04677833890660       20.68462380306141       24.13917321141924
C           18.56640070594132       20.73085943736256       24.21123735251301
C           21.18980414373575       21.95571055639299       22.40618761335687
C           20.47988078276350       21.64052572337138       21.08718318770165
C           20.82752255414814       22.85927452713434       18.98194704208624
C           21.91918521975423       23.30313298503493       17.99777234251344
C           21.66422823474818       24.70717943676639       17.43392387064181
C           22.78713884516010       25.11285913699161       16.48240269979444
C           21.58517742320250       25.69497972409881       18.59805954498809
C           22.97880624636226       21.34090087656448       17.15207473607156
C           23.09054128869742       20.13299216403302       16.20139170880150
C           24.04887852011084       19.10041050116152       16.79633338894756
C           24.12487978126650       17.87224219332083       15.89501864247831
C           25.44312942398606       17.58935304058209       13.88367814434875
C           25.58369248224531       17.92132565352724       12.48923065673891
C           25.76295291567188       18.05348812841306       11.30580856150020
C           25.81169124714235       18.22115327171951        9.85488720503239
C           27.13450695017206       20.25210095659742       10.21084578705726
C           27.24987984120575       19.16628330973796        8.09658042157686
C           25.90294484214099       16.80033951534027        9.27085520450057
C           24.48133930922482       18.87543693457000        9.42088447948273
C           23.59837829307869       19.22732573486158       13.93468884627048
C           23.55750317706957       20.49822507207327       14.79072733699801
C           20.94164572472694       22.23077059613405       16.00811151378192
C           20.29914230964512       20.11596913833868       21.00373675596074
C           19.32443683181103       19.62149059309088       19.93512819126942
C           17.98515894146920       20.37759103710638       19.88661014606354
C           17.74304178389845       19.81796154104426       17.61667531080775
C           19.10494668587570       19.11559478535382       17.67348475838527
C           20.92972292946200       22.24079987081248       24.82621923046054
C           20.53062241089124       21.06451561422392       25.71707181721208
C           19.01517772096020       20.87636109262868       25.67454527929059
C           15.35112668417902       17.17073612138138       20.89988434900348
C           14.54681108930694       16.58811723486663       19.89550036948140
C           14.60227229202809       17.05744575328619       18.58944250829366
C           15.45574871915420       18.09570736462622       18.30250131957257
C           16.31234509016746       18.66723110836863       19.27107403192206
C           16.25821936627518       18.18199675520454       20.57122078000239
F           21.83696269335582       19.51329242163590       16.09842117435503
H           10.83403130459926       16.85491297319267       24.08520203509133
H            9.47691196734657       16.88057854648587       22.95937243678452
H            9.71524607710929       15.49249065074684       24.04532175593627
H           11.67526172433292       16.34474003948901       21.86030073835822
H            8.96095643552138       13.89699461083445       22.50562143488245
H            8.39029992795611       15.34444681599309       21.61969604448705
H            8.80131311052367       13.85846720455887       20.73217875006312
H           11.84224878167358       12.21967838741656       25.22000455135897
H           14.30061442384005       12.04523158254226       24.77634578413950
H           15.30389078707192       13.62151819262222       23.12052583066315
H           12.29805596554202       14.16271649963223       20.36652826391451
H           12.50042966218802       15.13915141169539       18.91017003296712
H           13.41080795284915       12.83934121416996       18.56550988537274
H           14.70847322132732       14.03719117967177       18.47851738071912
H           14.50373932001586       13.06021517529785       19.93451581206664
H           15.51394050146148       15.87616233583105       24.08467830548997
H           16.67192217712654       16.99986917136745       23.35846380351019
H           15.24782613586036       17.07185715678313       26.20923852871566
H           16.61122273107517       18.03583055725008       25.63966121339758
H           15.14310606224245       18.83424929574082       26.20998948791338
H           13.20334033986710       16.76619514428918       24.72320032324187
H           12.98651161226115       18.50585874756381       24.95111683299692
H           13.00285736773979       17.82234040324124       23.32200552172632
H           14.69391911376002       20.09108021458366       24.05843449802324
H           14.92723473384978       19.23903912810617       22.50777861908718
H           18.96509830950857       19.80508387418861       23.78527392016575
H           18.53660589634791       22.69550114760977       23.69099299534323
H           19.51490563096025       22.14835585019663       21.05617257096643
H           22.28627699069920       21.95752671059451       20.09036728826374
H           22.88159671668749       23.31010695937708       18.51914814494189
H           20.70398544346947       24.71918252953092       16.91324666755887
H           23.73434172106970       25.14100012138710       17.01641982588606
H           22.88632735045107       24.41375186360595       15.65713061573343
H           22.59043856772249       26.10155709436029       16.07728593090892
H           20.74672792907425       25.45598934444716       19.24763739866776
H           22.49921095113335       25.66586287573681       19.18773254545486
H           21.44895977573321       26.70476523168964       18.22047364748603
H           25.02656681273836       19.56550933005956       16.91447782402809
H           23.69169462782522       18.80778216793506       17.78401660522083
H           23.15401894668624       17.36197423895520       15.89743313720214
H           24.88986024073573       17.18089745423927       16.25272102878856
H           28.17034227572399       20.58211078562749       10.13828580159950
H           26.49250867260896       21.04163889235074        9.79106377822446
H           26.88833207576974       20.11662966431114       11.26178058770950
H           27.23534084246148       18.20801901237376        7.58766096320652
H           26.52665888593034       19.84354606907352        7.61776613930605
H           28.24366337806771       19.59777047132086        7.97906893027567
H           25.18708469654117       16.15571420927828        9.77472038451834
H           25.67533388822856       16.80137851639838        8.20898910871960
H           26.90106225415059       16.40273071693637        9.42962881268543
H           24.43168095227326       18.93634217888113        8.33687053544126
H           23.64864484831461       18.27319800630190        9.77529692843384
H           24.38856801886432       19.87515839095528        9.83984676999832
H           23.96286238718459       19.45620032730983       12.93327409297579
H           22.58384357932262       18.81757000737171       13.85986547910901
H           22.88364451381293       21.21778516544196       14.32945748284200
H           24.55041890690468       20.94028900570854       14.86643496904845
H           20.86688625593681       21.27501696850313       15.50857708185661
H           20.00210745530078       22.41843127708072       16.52898407728066
H           21.09559120870699       23.01580389804149       15.26702692220094
H           21.27489124816234       19.66675727660126       20.80561589526257
H           19.94138591112462       19.75666220300730       21.96575457315059
H           19.10924447261692       18.55752287361458       20.14700625219869
H           18.17359744004473       21.39841213005063       19.53953654249797
H           17.52119061929500       20.42056219772575       20.86971851902953
H           17.13316999888396       19.35156499193140       16.84881850049480
H           17.89236797968050       20.87197519769766       17.36275282474610
H           19.63533236092855       19.20812599168910       16.72864165227302
H           18.95099072839098       18.04813573479551       17.90231321317894
H           22.01229112318152       22.33046164765408       24.73820628144144
H           20.51873825255831       23.17428910844248       25.22468785545241
H           20.85786657689079       21.25633887663056       26.73762957338388
H           21.02391023693603       20.15894709399885       25.36043667093501
H           18.50943275106879       21.74118759155909       26.11010489796516
H           18.72294410190050       19.99006217873173       26.23762495213749
H           13.97987273225685       16.64093315342474       17.81192851131270
H           15.44954449803509       18.48836723144930       17.29902325198640
H           16.90204541219411       18.56592200012907       21.34478919991285
