151
 energy: -221.317023462064 gnorm: 0.009572273984 xtb: 6.7.1 (edcfbbe)
C            9.47021845102024       16.53236616151530       23.03261942403463
N           10.52522330139325       14.26498244583753       24.33235067391852
O            9.86899548601016       14.62109341462120       21.52187475835299
C           10.47820605912711       15.61166506790706       22.35212256982399
N           13.58218427499411       15.02727225540760       21.03957970093286
O           16.21666442318247       19.55192011644574       23.37850365327482
C            9.04651632609808       15.11901040953780       20.48481605640699
N           18.47653189565311       22.05227740206434       23.00550170960264
O           26.05403890078726       17.36103441861188       13.44259737945623
C           11.26556791303405       14.82998959715871       23.38626743498651
N           19.82799265768483       22.36701584075849       23.18321144588036
O           23.79585074328906       21.00434806076316       17.71286692254825
C           11.10526823943901       13.54482901095999       25.27380746438284
N           21.45421957017343       21.74716640565933       20.03538203784958
O           19.93054246671906       23.14810246746512       19.13960212992067
C           12.47537427690679       13.34211812371114       25.33292802970516
N           21.97153566255960       22.10031142953273       16.99749689495037
O           20.67047233854914       19.10399279225447       19.10133711698346
C           13.25361450182327       13.93193275528143       24.35702650078998
N           24.19124507501517       18.63335493076200       13.67116842449664
O           21.99379127070081       22.48923189142220       22.61092800403707
C           12.65905214382815       14.69813793076156       23.34948464350904
N           27.42042109628221       18.60665255352348        8.89189572615133
O           15.73098526027967       21.70603872623158       23.77886443555441
C           13.56569302342666       15.32774739084481       22.38413617984019
N           18.22195883221429       17.73030029262724       19.62388560436486
C           12.80321350510260       14.01311127136322       20.37336944628813
C           13.57182897896043       12.69500061251438       20.26006034615116
C           14.59865262280174       16.18985720003258       22.69035028358153
C           14.90946747190276       16.83371212501298       24.00367785023475
C           14.28118237838657       18.23473985738117       24.18890665777803
C           14.58442705723710       18.73560110881712       25.60311644783708
C           12.76713219891956       18.16086034445983       23.98664443041149
C           14.83026152969587       19.23619035943304       23.15998324973779
C           16.52718358337534       20.80154425789678       23.67890952780773
C           18.02494626956634       20.98473021729000       23.89969385681579
C           20.85234230272810       22.10060652942229       22.36476611839857
C           20.58307467740230       21.28092726305962       21.08912082449005
C           21.06438882602399       22.67417187780660       19.15611940568455
C           22.13090804204120       23.03270819123857       18.11709723294765
C           22.07015319118319       24.50961148352911       17.69822348761836
C           23.09844160306663       24.79918614487194       16.60695707002068
C           22.35079084205811       25.37357701079455       18.92738214240802
C           22.87014066093523       21.11289176593991       16.90529131346528
C           22.83416736797495       20.11843487449610       15.72635871563441
C           23.72358740540195       18.91793761893906       16.05439431655228
C           23.77179388461342       17.95134598804128       14.87561190412707
C           25.30984939031409       18.25580773099837       13.03114811345156
C           25.60324365033147       18.90256873545207       11.77842408086516
C           26.03041120793821       19.21262746925183       10.69494753201563
C           26.47936803843208       19.63266212149823        9.36917616278151
C           28.55096914790271       18.38603247329138        9.77172051811627
C           27.86581290611804       18.76076076056785        7.52219978307586
C           25.23607689257586       19.67234006928252        8.46547306866884
C           27.07957253009475       21.04937865668507        9.48735166066513
C           23.35312820283733       19.74437567888513       13.29297096412948
C           23.29366270889819       20.78035112654820       14.42425495579035
C           20.78845648310182       22.29136854894512       16.18371501720242
C           20.85486586088535       19.80760910205836       21.41071001848070
C           20.23915004380420       18.81943976475253       20.42202530208963
C           18.70552836845299       18.79707956680510       20.47640405064847
C           18.66405667871345       17.96568397691362       18.26241141230403
C           20.19120875973714       18.09885936029432       18.23081740422926
C           20.04678887648361       22.95309675004077       24.49640207068636
C           19.69328061613403       21.90219912664665       25.54688582763666
C           18.24743667872161       21.45578464804261       25.34469402584527
C           15.31622835961974       16.40373168872283       21.47831452201261
C           14.65605383628243       15.66394606163655       20.47381957389810
C           15.14161610385163       15.68560115393316       19.17401021453281
C           16.28303023769713       16.41115426034355       18.90468845119764
C           16.99421212573339       17.11637680019948       19.89970667418033
C           16.48279719224695       17.10695997133672       21.19083674114702
F           21.53624938988386       19.62253404087850       15.53438641825611
H            9.99269218822961       17.20500948526292       23.70523449575783
H            8.93190377603652       17.12238362834803       22.29754100179657
H            8.76927324067972       15.93350065523198       23.60501643350509
H           11.16589479758079       16.21391580180542       21.73109003447139
H            9.52879189909981       15.95589723671639       19.97202403951122
H            8.91383187793524       14.29370837321538       19.79020471559156
H            8.06997346544907       15.42750184878394       20.86313673855201
H           10.43521916316790       13.11900312400433       26.00802532444107
H           12.91593431959399       12.74255478380047       26.11513751659265
H           14.32631413389453       13.80011872742033       24.35019585392318
H           11.87636573713777       13.85330762823322       20.92663468288210
H           12.55026109524831       14.38246048528095       19.37419611141434
H           13.80363556389594       12.30896002051400       21.25244520114491
H           12.96710347066859       11.96282293957197       19.73235592804907
H           14.50528743233573       12.84167922846748       19.71837975477791
H           14.54800444192248       16.20338056017052       24.81754266691751
H           15.99285874367039       16.92865124663645       24.09897635679641
H           14.09584153410172       18.10137938154419       26.33738306816388
H           15.65496340515814       18.72347331107848       25.79526720119909
H           14.22346918384266       19.75388556180524       25.72908693298414
H           12.30037920361237       19.10386766910384       24.24756240940955
H           12.53169786741898       17.93442120480604       22.95157842803350
H           12.35017601486729       17.37971942622356       24.61042765697954
H           14.26218060528257       20.16985214683671       23.21082445428086
H           14.76301679258339       18.81993222022640       22.15318344461172
H           18.53719401534319       20.02605194600359       23.71926968160832
H           18.25665621320663       21.86473120499709       22.03497252187723
H           19.56554447988159       21.44056371129273       20.72198457710583
H           22.40105913053230       21.38687306083716       20.01028103407756
H           23.11978032455447       22.83444219664168       18.54031536481106
H           21.06449538603180       24.73971922183144       17.33823935089817
H           24.08851143594272       24.48676101327700       16.93313164028502
H           22.86264959993908       24.27537826578657       15.68528313237053
H           23.12492056771891       25.86540095224268       16.40028133540402
H           21.60882297196755       25.19469502062538       19.70378240218017
H           23.33410867757451       25.14971208960612       19.33521792756956
H           22.31884690833934       26.42605304306710       18.65836741573582
H           24.72040950000191       19.28478482759830       16.29477237513314
H           23.32748565575321       18.41348307027776       16.93692631614327
H           22.77693060334241       17.52389432443964       14.70804224820882
H           24.48269829510235       17.14705427272609       15.07109625108611
H           28.20841194619605       18.29374903543223       10.80139190183792
H           29.02914913998285       17.44883694106382        9.48651177619118
H           29.30532554528210       19.18614488020386        9.71611792273398
H           28.47640362746621       19.66206190730797        7.35664721654027
H           28.47562642392168       17.89252597186060        7.27384068934993
H           27.01264492185006       18.77777552779830        6.85032568613532
H           24.44123837091555       20.21912816963621        8.96632002012984
H           25.45812405836873       20.17150842860250        7.52654953933447
H           24.89576450378158       18.65942197089804        8.26810933837209
H           27.88970703039846       21.06684305212486       10.21276050816932
H           27.45886372161340       21.37212925658617        8.52087758211357
H           26.31079755298212       21.74663800936434        9.80998756921394
H           23.74901292379084       20.19947192595677       12.38365644204167
H           22.34076191796541       19.37084788802052       13.09909830942556
H           22.60317217319534       21.57393169617875       14.14495676537918
H           24.28088637599477       21.20894455349128       14.59763820214629
H           20.41600881395700       21.35264238969941       15.79059264204859
H           20.01151496979001       22.72400956991241       16.81382138341847
H           20.98779837028192       22.97816396273599       15.35878284084688
H           21.93737415429954       19.66590381867944       21.43551025319766
H           20.46552590919963       19.57510023800415       22.40443109754218
H           20.59075692383994       17.80781572693002       20.69013213912623
H           18.30925268704519       19.76901247122196       20.13157852823168
H           18.40253623006823       18.63769798700898       21.50778472929803
H           18.40236649535812       17.12651891127405       17.62331268010869
H           18.21166475451304       18.88720903486454       17.85763615444048
H           20.51982027362423       18.37725951963261       17.23119540449513
H           20.63915980449625       17.13637973899894       18.51465679866141
H           21.09109539905827       23.25666456124695       24.55524872052128
H           19.39306007899615       23.82171648373080       24.59219496348831
H           19.81422632934843       22.32356774901037       26.54279287992313
H           20.37007496466816       21.05218984534532       25.44457986160232
H           17.57521533135768       22.29664204705343       25.52153506393057
H           17.99239012134085       20.65123676996307       26.03407291206347
H           14.64837328668815       15.15126336625186       18.37583050901027
H           16.62890789264193       16.41680993251311       17.88467771649484
H           16.96861338077317       17.61343110740326       22.00578511250017
