151
 energy: -221.323018402720 gnorm: 0.004586457223 xtb: 6.7.1 (edcfbbe)
C            9.56765087463957       17.14108299951656       22.32876648675472
N           10.19046323497010       14.96198656856326       24.02822071703325
O            9.97254134823432       15.03488892238632       21.11160144076984
C           10.56239011727773       16.05406721219453       21.91952973439793
N           13.63389813294505       14.91622296231693       21.15346267306283
O           16.43775999247995       19.65289361274261       23.00976686017599
C            9.47654623961152       15.47660578273237       19.86557007795018
N           19.04614185223052       21.64118323183223       22.63024672110291
O           27.72585192927204       18.39548412374902       14.03371978285251
C           11.10301753312433       15.34896872523021       23.14824922403388
N           20.40986065273844       21.78214133899428       22.91120951814954
O           24.48168891902806       22.02250216465648       17.74454538383950
C           10.57263134652510       14.33720231960748       25.12732748419752
N           21.30837222562353       21.22499705353092       19.61402877822108
O           21.22320316196864       23.34390533412147       20.36351244886737
C           11.89929093561001       14.06659647130869       25.42239573600850
N           22.29542838185872       21.86432108136286       17.22641622291102
O           20.61166854059909       18.73548842175611       18.62249851815069
C           12.85861334906430       14.46763935972752       24.51112135795503
N           25.52398205607308       18.66936758279872       14.52037270935618
O           22.55002411576328       21.46339175805481       22.28679203810199
C           12.47240371427658       15.11893931877916       23.33908919710920
N           26.51135525413221       19.09020840339651        8.83832253414117
O           16.23554463472042       21.86211131752738       23.35409641441860
C           13.51852073563826       15.51295589328677       22.38872641793314
N           18.37594643186398       17.19622591132795       19.43532117663392
C           12.89669061606352       13.76646145731481       20.69432691385628
C           13.52154089806312       12.46829807534082       21.20493925371511
C           14.54992290015097       16.40557516975751       22.58704437011736
C           14.80761877976110       17.24101267586791       23.80112097688094
C           14.28735369272255       18.69630144920144       23.73976926075146
C           14.47681575870149       19.34790818979179       25.11239736800388
C           12.80644244349889       18.71713485829287       23.36468147955065
C           15.04709478111642       19.50790011766862       22.67938890401693
C           16.89394034268900       20.84502647463271       23.32869545036615
C           18.38287315489996       20.82174004898253       23.64857173211747
C           21.35162335560043       21.35108886231746       22.05560249781286
C           20.82164936443898       20.60777585089773       20.82820752171152
C           21.47554323558810       22.53945929089110       19.47026550355445
C           22.02274801069855       22.99389813695740       18.11014398441799
C           21.16974577544844       24.10770170316362       17.45108827491605
C           21.73009517382762       25.47334980964883       17.84670306907562
C           19.68489157829579       24.05461366897978       17.81209191037190
C           23.56459630227642       21.43112783390157       17.17295350685250
C           23.90595399756597       20.15431074555599       16.37595755213127
C           25.31871554592239       19.68418549830016       16.73138933720217
C           25.68926838577173       18.43134342166432       15.93587324674204
C           26.57844867867598       18.68083979026137       13.68482699864937
C           26.26929232507073       19.05067934784475       12.32743910438344
C           26.10816213129203       19.37118613247154       11.17812123406421
C           25.76507748328742       19.85371701959071        9.84433379109684
C           27.92221877532559       18.93162928853125        9.12173112606197
C           26.32016316261216       19.53908930242765        7.47370646511528
C           24.25635862804737       19.60307493312526        9.66717310751796
C           26.04955009421451       21.37165222076544        9.84292297960610
C           24.18381207674243       19.05453470800854       14.14795417278079
C           23.79040726376543       20.35065395873286       14.86268890182186
C           21.16391694061294       21.30430886976518       16.51022219941352
C           21.30374242989775       19.15388194849103       20.88428308567431
C           20.53815242215159       18.22065855867717       19.94135509251330
C           19.08270772564242       18.02336204954866       20.39174755622870
C           18.45625229509504       17.77477212513718       18.10488113007643
C           19.92694534655686       17.89276629769344       17.71762578657096
C           20.73247525700073       22.38823008388521       24.18921511839791
C           20.12740183355870       21.52946512235366       25.30085038026441
C           18.62620288944717       21.36367054380015       25.06636979860740
C           15.36419814155500       16.34126725056667       21.41722367663444
C           14.77004008450383       15.39116657173972       20.55655549814123
C           15.35852515148233       15.07012854606268       19.33865901805684
C           16.53202172260210       15.69892793450568       18.99781965833212
C           17.14262243739799       16.65505508758248       19.83441325383365
C           16.55270116233653       16.97312420536480       21.04653485523031
F           23.02486648697346       19.13420531363570       16.77185601453280
H            9.25880084935292       17.72720287431236       21.46788693772298
H            8.70180887530532       16.67312583361952       22.78725587570220
H           10.03730936344909       17.80272963612722       23.04981109834273
H           11.39766962023041       16.50627518193052       21.35655498140622
H            8.56627104664595       16.07216970231406       19.98107621413617
H           10.23245262305010       16.06370330653433       19.33115320513362
H            9.24592859933487       14.57475875495025       19.30232089800048
H            9.77403972392553       14.04735754951607       25.79715963600459
H           12.16960300135509       13.55289448553326       26.33060657608228
H           13.90493783974602       14.26799429587096       24.68442372594386
H           11.86067385457223       13.83983924875791       21.03188312364436
H           12.90405550111760       13.77892758708409       19.60203902429620
H           13.44082347819337       12.41215631046057       22.28820813984031
H           13.00890478713879       11.61380679673469       20.77290580468671
H           14.57381271421170       12.42400501397039       20.93120962747016
H           14.33789353293984       16.76473759133762       24.66377735801476
H           15.88552864874956       17.27578166865737       23.97392951556089
H           13.83923404282643       18.86625780240006       25.84873651814041
H           15.50986559012261       19.26159545911383       25.44323391767736
H           14.21878069776753       20.40487117459267       25.07097861068343
H           12.42215099157346       19.73373129042241       23.38239375732285
H           12.66074909267999       18.30751834434779       22.36892341837336
H           12.23986774241805       18.11644458000679       24.07159613429794
H           14.61174683649448       20.50670882076560       22.58487759190783
H           15.01213126104822       18.99458622302499       21.71737110636800
H           18.76309049789077       19.80019703385160       23.54956408620757
H           18.61021405994422       22.56489005070264       22.60740780711379
H           19.72887020965911       20.66743881086543       20.85214158727837
H           21.51611541471017       20.57245470149023       18.87033565376373
H           23.00626817740454       23.42343743823198       18.34341142724691
H           21.27806711104101       23.99875124934013       16.36849371359801
H           22.74802733026657       25.59581335862169       17.48256196933322
H           21.11504580056315       26.26755708155643       17.43090374971349
H           21.73569761240512       25.56931074022633       18.93026038923817
H           19.14605586970528       24.80176979015842       17.23323827079327
H           19.24193233056900       23.08403454665879       17.61189075220380
H           19.55273081263849       24.28015140499982       18.86738258715126
H           26.01297316441130       20.49612686358403       16.51676609636632
H           25.36988907822054       19.47607828704443       17.80026150264642
H           25.04098609983630       17.60089262062903       16.23367460502187
H           26.73030239790069       18.16061038455674       16.11801071144399
H           28.49841944336447       19.86255059131077        9.00168550301158
H           28.05938826326693       18.56589487070694       10.13756449791575
H           28.32689694191659       18.19332459181351        8.42987190097672
H           26.70458007694313       18.76453954269325        6.81073319887175
H           25.26367127316622       19.67142565390876        7.26337373477586
H           26.85347551627459       20.47517783108247        7.24938838441912
H           23.87289109015141       20.12994961511255        8.79903686200765
H           24.07812117952168       18.53840990362977        9.54775566329814
H           23.72186923699645       19.95840573791430       10.54398458817935
H           27.11359435606359       21.55955052007867        9.96877848531971
H           25.71529566984203       21.81518739407647        8.90907913938177
H           25.51963895779191       21.84452846570389       10.66539206342106
H           24.13276025940014       19.18480179317834       13.06811032550582
H           23.50011673584558       18.25439007204102       14.44896846992437
H           22.77795970031609       20.62476843008329       14.57698090021180
H           24.46792113300179       21.15683989657920       14.57974475254093
H           20.96304432126858       21.88337862779841       15.60780591915032
H           21.33272197703247       20.26771495175270       16.24755553705433
H           20.28838498983583       21.34384985175364       17.15273423930639
H           22.36442309018085       19.14472037508867       20.62560360439664
H           21.20537769905873       18.77805026321420       21.90272969226099
H           21.02689332464417       17.23167729789552       19.95340359334889
H           18.59399412134130       19.00384844079183       20.51163219940011
H           19.09841462300805       17.51228472337733       21.35502955307674
H           17.93655259168457       17.14468823049425       17.38762215803667
H           18.00124455873808       18.77944160640106       18.09007860889262
H           20.03771047318677       18.34549464020817       16.73340003210052
H           20.39040502531634       16.89695185280163       17.72003892156316
H           21.81841231584691       22.44360472253810       24.26052244200471
H           20.31732832025548       23.40134044677094       24.21251901912179
H           20.30906307816365       21.99883536202938       26.26640973883088
H           20.61194049087150       20.55163845870253       25.29438047194520
H           18.12119452110251       22.32841212994114       25.15683994481348
H           18.19738290575574       20.68214087109897       25.80092066077049
H           14.92579271257407       14.33496615921532       18.67808247877230
H           17.01381255956156       15.42729976267721       18.07210186880768
H           16.99197243618431       17.69172199954075       21.71701636881372
