151
 energy: -221.329477565400 gnorm: 0.006998989915 xtb: 6.7.1 (edcfbbe)
C           11.02020212168812       15.23021793603677       24.38978282821402
N           12.29582629727689       12.97680906663095       23.25681421872701
O           10.43380935401678       14.88498077316519       22.02305304677184
C           11.48265695493567       15.21759956369676       22.93319353210349
N           13.35625663932524       16.25539364748220       20.34724448746405
O           17.20495654026781       18.89826474670518       23.95117203819845
C            9.39670193816681       15.83781160856068       21.93027964455202
N           19.07844620780723       21.73740836416413       23.26201234009771
O           25.47637412471940       16.67536557947136       15.14872436104693
C           12.54967965451545       14.16164987243117       22.71944219904691
N           20.41517531804117       22.15134883642216       23.30999680018343
O           23.13009223715090       21.55260972803130       17.96735736741351
C           13.16027258664165       11.99150692717397       23.09958720954364
N           21.08281512834178       22.63008824253173       19.78506555843511
O           19.34061875542036       23.59340918200110       18.71443874262757
C           14.34362961093592       12.12798886299596       22.38989880581910
N           21.48789226760793       22.46918549153983       16.74250106747859
O           19.27090749558974       20.46615393228457       18.40106182810321
C           14.61835648818686       13.36089839920612       21.82837239959637
N           23.70907289652903       18.06040520316033       14.83112970804313
O           22.30106264048953       22.64084462887837       22.18077012010381
C           13.71691604549793       14.41410550042623       21.98456770737341
N           27.68471841932553       17.59336207911421       10.62511018505027
O           16.50781699006890       21.01460172266111       24.19079599777597
C           14.06397777471404       15.71165399091328       21.39385760317862
N           16.52156944595230       20.64991170478480       19.20601388494342
C           12.34428509077440       15.58258846546989       19.57224336161140
C           12.96902186551210       14.76736144478381       18.44045643404676
C           15.13998823086502       16.51427683387503       21.71083206530972
C           16.17094771035408       16.26975671236599       22.76643087787069
C           15.86805201898814       16.87599510192767       24.15464815040919
C           16.94366295592482       16.40575997642775       25.13806087576684
C           14.49357282948934       16.42936363879584       24.65079965852533
C           15.86179167827813       18.40726133044857       24.08455881750011
C           17.39152907522775       20.19598890059014       24.06601995131641
C           18.86997481252152       20.54163416133550       24.07383507386964
C           21.12202788490719       22.30736744493700       22.18046230071642
C           20.33780690360133       22.07307237436663       20.88783842867494
C           20.52902103915502       23.30113798505792       18.77178865208608
C           21.52354264516977       23.62802597514311       17.64717272916640
C           21.23955122955875       24.96955859813302       16.96181595791797
C           22.30212272166657       25.26512007006425       15.90505270840850
C           21.23665267809151       26.07998308049593       18.01292789338810
C           22.30794835730523       21.45893512126242       17.05111067489059
C           22.32084715182440       20.16318164606325       16.21516113388614
C           23.11098536231471       19.08800828203866       16.96486315434013
C           23.16333997480350       17.80289483665757       16.14448484394281
C           24.84206757842604       17.45532715191320       14.43464935821634
C           25.27466957387320       17.73485698884926       13.09102890317281
C           25.76759551519353       17.78841002155472       11.99310805440488
C           26.25915790008289       17.93885787185865       10.62659425634118
C           28.48603019530563       18.39280441294733       11.52910977936266
C           28.30446948781708       17.51095978562750        9.32027048555589
C           25.46913557525569       16.93533232675232        9.77026870071338
C           25.94080391753777       19.37905195778677       10.16669183447931
C           22.98641604644793       19.04793529857218       14.06618208579649
C           22.92778101848313       20.38010061037098       14.82540151598843
C           20.39330818820546       22.44960392837029       15.79650569764085
C           20.07748122523454       20.57144982190727       20.67518468348664
C           18.90039552845533       20.23957965289574       19.75615732388837
C           17.61333624514061       21.02159816840214       20.08106926418317
C           16.93492704033164       20.87184160412459       17.83102121126743
C           18.21646993837849       20.08202114471393       17.53777590161180
C           20.96651590788791       22.41010360125249       24.63310791011756
C           20.80487698373962       21.16740758277820       25.50785086783995
C           19.33641223858514       20.74441493634665       25.52739135749520
C           15.11424461641438       17.60365318357461       20.78871220790919
C           13.99888144423215       17.39555692875379       19.94662164325431
C           13.71684874018804       18.27931411962114       18.91108100129801
C           14.57292791723408       19.33335235960018       18.70836663570573
C           15.72810941375061       19.53544703096924       19.49696729545444
C           15.97768241715731       18.67826409713332       20.55801734688771
F           21.01846520539861       19.67156198194109       16.05712191103121
H           10.30884021595048       16.03324611036827       24.56139641576418
H           10.55957458740437       14.27474777229360       24.62026262739562
H           11.87754800357857       15.37849730969355       25.03834186457619
H           11.88344176827294       16.20771447885621       22.65705965082367
H            8.78528849489144       15.52324231923234       21.08775339956038
H            8.78552549660773       15.85881678132342       22.83565569085877
H            9.80043459202394       16.83952731458252       21.73885415617200
H           12.88697922509795       11.05471494058596       23.56557783738853
H           15.02196116277709       11.29780988084801       22.27671249660015
H           15.51609938543479       13.51622611112498       21.24603192305729
H           11.76676639368648       14.92834313420664       20.22804519805868
H           11.67197292772496       16.33985114805063       19.16069637568131
H           13.60527413642012       13.98542630837027       18.84989840043193
H           12.19083528622467       14.30432047404969       17.84228178056031
H           13.57244513434044       15.40877958870287       17.80178299086638
H           16.29007269218414       15.19310019954413       22.90309283160031
H           17.12443006219182       16.67470122049736       22.41997136616509
H           16.87705427711500       15.33002325877087       25.27116105761238
H           17.93408848810834       16.64919464623664       24.76583448642140
H           16.81039746601103       16.88106086418654       26.10663324634536
H           14.33572598530952       16.75561108066372       25.67574444032770
H           13.71158566880178       16.85292746832377       24.02721591844827
H           14.41704388904724       15.34550417142227       24.61489005750730
H           15.43660178031443       18.83619198801433       24.99801739418566
H           15.26893128540817       18.76162473246406       23.23567907384413
H           19.42947801583268       19.71254442230093       23.62900450626874
H           18.46427669848897       22.47886126102663       23.60469735504637
H           19.39543806675329       22.61815101061918       20.96357765363079
H           22.06553838197656       22.38763518314526       19.75384574595441
H           22.53332928314610       23.65865907821260       18.06985685148468
H           20.24673663905219       24.94054805047702       16.50750882718541
H           22.38771155874531       24.45975744269754       15.18102579564071
H           22.05497438354941       26.18237107471866       15.37738991026702
H           23.27190096424262       25.39300547651289       16.38158324308865
H           20.46878820324391       25.89984038386131       18.75960154240060
H           22.19874659737802       26.14021588394851       18.51226705809194
H           21.03194876345545       27.03432732156259       17.53763827220279
H           24.11439769427525       19.46735118049010       17.15615920285285
H           22.63079411145245       18.89724028642213       17.92524456474293
H           22.15197592648014       17.39603256180848       16.03501279958804
H           23.79998644312949       17.06374702490754       16.63478861106504
H           27.98375599683174       18.46973594635509       12.49261930135767
H           29.44125843180775       17.88924823241567       11.67981027632922
H           28.68751648079526       19.40627890285297       11.14935433896515
H           29.32540262115847       17.16717188128628        9.45927487369438
H           27.78996420112811       16.78366763793407        8.70186506022221
H           28.34412687795102       18.47061552984681        8.79091538449380
H           24.41322994159087       17.00439336661941       10.01116247219315
H           25.59689876153310       17.14821726368007        8.71540378241644
H           25.80830719500651       15.92551077282133        9.98196232853943
H           26.38473258284799       20.10615108689505       10.84216779956357
H           26.32450755566732       19.54507222094726        9.16241523540830
H           24.86362452023942       19.52554697020071       10.15760086321853
H           23.47682243545212       19.18391076687005       13.10174841468739
H           21.96554497981297       18.68480699192134       13.90330682211466
H           22.33213049138902       21.09236230503601       14.25625869150673
H           23.93085945470217       20.78506424234094       14.95748934476718
H           20.56802448717021       23.18345431415646       15.01012278675669
H           20.26924665174644       21.47403189182651       15.34777854827106
H           19.47475204437895       22.70381585306718       16.32685050241943
H           20.97975788854300       20.12771525860487       20.24793247330897
H           19.88029511601492       20.10241598105712       21.63458215225877
H           18.69007359434632       19.15921825550138       19.85951490835687
H           17.79884704593731       22.08257314548560       19.88692424902133
H           17.33172133989257       20.89606461443708       21.12637169728068
H           16.15835113095256       20.56861516518914       17.13357130335281
H           17.13673338823831       21.94125581373781       17.71188844966106
H           18.57084172285024       20.25799489044620       16.52449151480213
H           18.01575768347308       19.00667994151218       17.66961496909482
H           22.01286699117281       22.68192145391379       24.50274458093089
H           20.42284994726455       23.25365486300488       25.07238741400436
H           21.15025097082709       21.38345638044759       26.51676868658347
H           21.41394163818831       20.36060266801296       25.09857654339072
H           18.72257572078094       21.52341134018830       25.98822828383931
H           19.20579554907970       19.82081785072702       26.09111601486443
H           12.85296866567196       18.15204495045732       18.27690554328957
H           14.34808466586709       20.04184972382140       17.92735106426005
H           16.83729608530751       18.80963744204148       21.19619304643642
