151
 energy: -221.327312478935 gnorm: 0.007892476395 xtb: 6.7.1 (edcfbbe)
C           11.08244098215519       15.03120151264152       24.00470198718954
N           12.56479431437563       12.86361191573192       22.96014098987752
O           10.65349092637930       14.65486158357137       21.61171241150167
C           11.62802336930433       15.04743936487026       22.57610847185742
N           13.60765039062191       16.14384509762298       20.05655195472507
O           17.11740253259417       19.28256080179559       23.60533423909900
C            9.58933853942254       15.56642352817984       21.44179174759551
N           19.13726052564281       21.77051877800488       23.54522862237625
O           25.09717224093713       16.27340090550014       15.37875707279915
C           12.77362218985817       14.06311179262817       22.43681282592427
N           20.47874627129641       22.16446579365515       23.45696149861108
O           23.17527439449443       21.66520547892368       18.25313763707626
C           13.51085334036775       11.94579054903429       22.88129817160899
N           20.99527778200602       22.67978655034752       19.92857650383149
O           19.33102285069118       23.72717544684051       18.80989789306630
C           14.73882537886775       12.17333572483464       22.27957692383143
N           21.61532995299182       22.61179393718934       16.94371235995280
O           19.33000759096688       20.61996957279195       18.40428705764712
C           14.96558246843152       13.42134925135965       21.73011123866830
N           23.71950054588453       18.06798057883960       15.16443975883835
O           22.30692204781861       22.50042087000001       22.19758617020713
C           13.97159322493849       14.39938756249978       21.79222019912345
N           27.11496738136119       17.88447585763716       10.62099362116284
O           16.84227491497376       20.74751353371410       25.28503987665686
C           14.25734353962694       15.70584510990252       21.18768168982583
N           16.52550139488608       20.73974076911412       19.01873328119716
C           12.69010992281626       15.37166980751922       19.25697148706763
C           13.43529696783711       14.48026645845255       18.26284796474298
C           15.23853874608528       16.60252804498432       21.55341954521540
C           16.16721605291661       16.50173334382687       22.72096545433676
C           15.73507514222110       17.28964086107521       23.97891959248011
C           16.68938610143383       16.94726207131970       25.12824522958247
C           14.30819730935197       16.91408906983506       24.37341392689673
C           15.76591939011452       18.80541718400732       23.72885940784459
C           17.53315572980638       20.20163203351713       24.45277287410137
C           19.01732806308928       20.50666305917386       24.28494580763777
C           21.10790506643010       22.26181315797209       22.27587259112027
C           20.24197579968899       22.11298379519021       21.02067585144556
C           20.50669221359985       23.40212813158593       18.92042910246553
C           21.58201164151711       23.74911552470824       17.87594726728248
C           21.36151309775571       25.11366598112953       17.21324039111108
C           22.50813506959417       25.43142965265771       16.25643353431379
C           21.28415767495970       26.18707300938581       18.29988398920585
C           22.40430958356091       21.58938848393635       17.29130727827686
C           22.43346267085935       20.28616654965553       16.46513419050487
C           23.14739452561225       19.19399797810304       17.26554452522100
C           23.15061781510600       17.88625643997926       16.48186081992711
C           24.62213340852902       17.18560563787637       14.69542780929698
C           25.01063719002247       17.35552944194317       13.31870045691704
C           25.40509794464326       17.32075572511872       12.18154196647546
C           25.76057315622824       17.33246516239264       10.76449795544167
C           27.34381352207052       19.12111021687728       11.33945079955058
C           27.58121198258521       18.00545806910377        9.25410982043560
C           25.74905702222761       15.86153779080996       10.31298967437545
C           24.66418508064255       18.11984743929964       10.01434608340317
C           23.10756188041218       19.10640614723809       14.36672776976999
C           23.12880992362615       20.44645919970839       15.10969182983781
C           20.59918174599425       22.62063074682768       15.91297093479616
C           19.93662210690631       20.62864613246257       20.76573474811494
C           18.85686928264549       20.35359904502658       19.71979402492341
C           17.55282686976954       21.13692318328592       19.96103638832312
C           17.02434380054429       20.97733670691531       17.67411923151814
C           18.34750404587627       20.23090427545224       17.46113339536180
C           21.18892297543740       22.32856480667250       24.71667888180005
C           21.14247893485420       21.02157534541285       25.50469276373358
C           19.69027052865966       20.57310059618129       25.66361961715348
C           15.21543123722976       17.64054126194366       20.57613622316419
C           14.19417943266278       17.31456809339448       19.65595667820891
C           13.94077168534174       18.13845393869921       18.56542244251426
C           14.72649072988465       19.25353512849798       18.39298216409328
C           15.79298484935823       19.57074137490392       19.26260170841388
C           16.01910399331541       18.76245067517378       20.36624792670833
F           21.12898404048101       19.83789905524160       16.23245055803490
H           10.64330952805723       14.05711817915573       24.19850816191211
H           11.89506202952763       15.20263287912200       24.70408905662431
H           10.33579462074040       15.80806860101439       24.14208823172554
H           11.98574297351321       16.05927120323175       22.32117253337078
H            9.03069696693081       15.21233849551173       20.57480877481991
H            8.92983074446444       15.58601477766270       22.31573040644350
H            9.97115437644306       16.57844947769235       21.24990385777764
H           13.26674347703535       10.98843407296397       23.32162423208027
H           15.49028717627636       11.40113576252808       22.23944306685230
H           15.89963899215829       13.65140903694599       21.23732466893814
H           12.07044502272135       14.75643404407211       19.91227553651546
H           12.04137573616460       16.06822470365002       18.72077545552736
H           14.06060811812613       13.76718343453468       18.79489894068796
H           12.72470745901593       13.93193342279691       17.65168048833934
H           14.06806433956219       15.08311496418323       17.61530057637683
H           16.25813840556875       15.45343053905361       23.01054435247275
H           17.15362471082112       16.85912226260023       22.41798725082120
H           16.53744856482213       15.92143324388635       25.44863297828456
H           17.72437703637369       17.06163623691197       24.81543462200028
H           16.51183216878540       17.60357949409444       25.97693854677305
H           14.03973981142570       17.37229936571786       25.32157206557252
H           13.60333537753907       17.24553053769059       23.61651446847662
H           14.22718583905841       15.83432378488534       24.47145586429428
H           15.29699209556758       19.33384813205861       24.56303331936161
H           15.24673529583523       19.05433324157642       22.80193396099241
H           19.47751992692669       19.72020039905462       23.67708908694120
H           18.60924942418401       22.49090809799408       24.04131080768260
H           19.31656980774943       22.67788096618489       21.15404084092861
H           21.98074427289012       22.43520713573823       19.93552877210970
H           22.55594652867257       23.76263117712550       18.37521379738806
H           20.40625918996134       25.11009567842856       16.68257892184232
H           23.43595425234391       25.53461461289520       16.81443222611066
H           22.64592395724423       24.64730896756610       15.51734486516466
H           22.31263629902240       26.36616511656838       15.73836371246840
H           20.41964636640876       26.02270387690682       18.93771464121378
H           22.17821648943866       26.17598055901746       18.91930174272827
H           21.19160419035779       27.16849953536170       17.84259302135728
H           24.16205198062817       19.52983432664874       17.47650369697957
H           22.63375830652242       19.05045067788405       18.21668401105097
H           22.12035502357872       17.52242045730522       16.38028929468692
H           23.74447188659031       17.12965914036489       16.99921669283490
H           28.41500916703505       19.32595542538087       11.32918293267283
H           26.82536274408701       19.98620091223849       10.89367943110348
H           27.02178465169773       19.01024732440684       12.37289913575277
H           28.66274764346647       18.13295039211266        9.27881639379466
H           27.35992620182963       17.10283126452937        8.69589207592545
H           27.14739242231471       18.86852620602091        8.72850298319021
H           24.83930320780437       15.37950216050445       10.66135451552132
H           25.78373325168058       15.78271194671636        9.23000655145067
H           26.60420197724861       15.34458887359229       10.73820584117974
H           24.66688857170891       19.16340007546976       10.31874238028701
H           24.82895317944689       18.06054620128155        8.94215702581458
H           23.69012675341448       17.69534187764198       10.24248462946245
H           23.64644997609661       19.18996301698219       13.42257639181476
H           22.06638684547092       18.83021248589332       14.16068566258868
H           22.62626134439404       21.19856613813928       14.50350497730389
H           24.15420896851075       20.76645072504419       15.29176841204820
H           20.55109839201114       21.67398702093509       15.39297698389315
H           19.63253220490783       22.81298866834064       16.37901990632563
H           20.81205616530476       23.40983437717076       15.19320024512817
H           20.86215070360837       20.13855465136503       20.45372707969089
H           19.58995234590434       20.17980687696192       21.69154059777728
H           18.62778962020786       19.27259563509732       19.76526759634826
H           17.74936538579756       22.19727526589081       19.77338980546554
H           17.20554560380299       21.01169480883532       20.98484351736059
H           16.30533050114205       20.65237075185458       16.92678650808972
H           17.19705315230966       22.05269132731003       17.57006926708450
H           18.76320308897063       20.43872752998562       16.47827921864923
H           18.17036468699837       19.14713457977025       17.55536568700039
H           22.21160452505834       22.61982018003326       24.47838949170523
H           20.70329831498516       23.13124907331586       25.28159122819196
H           21.59855646138716       21.16945094026234       26.48256757222732
H           21.71030186155723       20.25881947318977       24.96897123388832
H           19.13654538083795       21.28009269367029       26.28568264239097
H           19.64329143395239       19.59403360537999       26.13924898748484
H           13.14987730492535       17.92321108715335       17.86294243854229
H           14.51028497206207       19.91086804054930       17.56659326752571
H           16.81875917385218       18.96029406665250       21.05918394934893
