151
 energy: -221.325288688377 gnorm: 0.004140678109 xtb: 6.7.1 (edcfbbe)
C           10.07452343149611       17.23138056063338       24.55599581257286
N           10.56819922995950       14.45250788805919       24.79971312407604
O            9.62555686469619       16.01546874021986       22.48284041659346
C           10.64810141101091       16.41034500518957       23.39914390267909
N           12.96557901085517       15.56321864193934       21.19507873739393
O           16.81132380840159       18.78480614420132       24.03706947515862
C            9.22200735708054       17.02319203637224       21.58216013481803
N           19.01535588471998       21.14088476198150       22.55061348403702
O           27.22450947163041       17.73988769494269       14.44417658168755
C           11.28355570760840       15.13237913425763       23.91514294857355
N           20.32228944417846       21.61927490387665       22.68312376897202
O           23.68690474249246       21.34222749462427       17.54793520795829
C           11.04922855845111       13.32823721296251       25.29706714336678
N           21.22472957651648       21.82583938474776       19.20437463616439
O           19.45617697013819       22.88353458883119       18.26521282171886
C           12.28954309547118       12.81410727361302       24.94941986825703
N           21.83953278377527       21.80165578004499       16.35626647902415
O           19.57519612204673       19.74325307214751       18.13707100395692
C           13.04343633225667       13.51594965666797       24.02797036528072
N           24.99994494213653       18.16408282074696       14.28927222823910
O           22.25600777994427       22.16966265188218       21.67284077638990
C           12.54560747543196       14.69928029003636       23.48185376042131
N           28.26179189113713       20.27164828312410       10.03647795121362
O           16.39434798736416       20.78325830704091       23.11628687624195
C           13.36249041730160       15.42964474809353       22.50642568456305
N           17.32883341194677       18.30779990836657       19.15817083819067
C           11.90327863382261       14.82589732355386       20.55774306276750
C           12.40519635455185       13.49093566004068       20.00923120693892
C           14.58041891111096       16.04548855949612       22.70277398849442
C           15.40215029562009       16.06400926987136       23.95361968391411
C           15.14449564060298       17.23906783107468       24.92103146259078
C           16.06891954823880       17.09469467627570       26.13216479782526
C           13.68917128178939       17.23844192184497       25.38488214311922
C           15.40211968738453       18.57747648107329       24.22264320618560
C           17.16859495670253       19.93644405706667       23.51037342096274
C           18.67375823615603       20.13574386383527       23.54510163945550
C           21.12209681589485       21.70922122811457       21.61005325891229
C           20.53448700808483       21.18755700279613       20.29715017364047
C           20.64436937944596       22.59322408394990       18.27697706625858
C           21.63882730983940       23.00081972218550       17.17666084337067
C           21.22701567550917       24.23097235820131       16.35945194484975
C           22.30455807478788       24.54651111227533       15.32284970990615
C           21.03955135243395       25.42100918698432       17.29911426229441
C           22.88927581479071       21.03239289896769       16.65763033516430
C           23.17548754176161       19.75366721294053       15.84286447702410
C           24.34777967778409       19.00324354808070       16.48029666503394
C           24.72965888968211       17.77611766545383       15.65455884093930
C           26.25747772854816       18.16756886843180       13.81102547932222
C           26.41088235572679       18.68237767975866       12.47468916955122
C           26.71394378021193       19.11179070248185       11.39094791530806
C           26.93576925393266       19.64339061856241       10.04834945712379
C           28.43770571353146       21.30554752597740       11.03719353095319
C           28.72216202012513       20.73416807756790        8.74488005686254
C           26.90568219327367       18.43881040228464        9.09314109183535
C           25.76996579364271       20.59936225973122        9.71710719795195
C           23.87551369908192       18.78375501402403       13.63314346884651
C           23.47221666956453       20.06445810780207       14.37316067178914
C           20.75070661495092       21.47501640059041       15.45911000939841
C           20.71991576007471       19.66004261902867       20.23684927251029
C           19.70131642514430       18.97330015556929       19.31745843743878
C           18.36442070580632       18.77100690915175       20.06012865510543
C           17.22155760604321       19.22084039603615       18.03674828552679
C           18.55936362612420       19.22750060892244       17.30421639283865
C           20.74500722729015       22.08030879286015       23.99647529210119
C           20.51832223841477       20.96694123969367       25.01567286464844
C           19.04907817759864       20.55499761084376       24.98216404091265
C           14.96274828017036       16.59148029179268       21.43875056011402
C           13.94625086694947       16.24121766273272       20.52317914954316
C           14.06109676946213       16.57385192123160       19.18031722579927
C           15.17908891689086       17.25929085296462       18.77063344124984
C           16.19583796941111       17.66502052156681       19.66435785246654
C           16.07190421139192       17.32232493058494       21.00495284008694
F           22.05682868789139       18.90536453773137       15.90961546262081
H           10.83695006793856       17.39235779401485       25.31108183385019
H            9.72024926538083       18.19704885223096       24.20429218958619
H            9.24896845224253       16.68187911262491       24.99759420678989
H           11.40511126168050       16.99645536756406       22.85398226944857
H            8.30900915892762       16.65993557274603       21.11673859777578
H            9.01626492213539       17.96824201292428       22.09102558273025
H            9.98888631922282       17.19219200166949       20.81661579623878
H           10.40802286960111       12.82488890475485       26.00792709835432
H           12.64719509556442       11.89413154233695       25.38251593133340
H           14.01039796861203       13.15405601191108       23.71006106199195
H           11.10411978824289       14.65596431476334       21.28238771002522
H           11.50597718214935       15.43555272540293       19.74218785302597
H           12.81899315597435       12.88718405270924       20.81382163752497
H           11.58440308580662       12.94772994909871       19.55118453116230
H           13.18118193544221       13.65589973634431       19.26546162011169
H           15.22436941853512       15.14146435435998       24.50921703421677
H           16.45494042093967       16.08895487809308       23.66505809720489
H           17.11016946994559       17.10737669323530       25.82067581158471
H           15.90601731434047       17.90914551883287       26.83372914822490
H           15.86947657491034       16.15541340784273       26.64116432958937
H           13.42832654434015       16.27363528235965       25.81190248298873
H           13.52857837998821       18.00499941835826       26.13908093005093
H           13.03096363490932       17.43435691620352       24.54428725954665
H           15.01776396575260       19.40921405943144       24.82242837348739
H           14.91161049349750       18.60940602892668       23.24480802886267
H           19.18017897353148       19.19908139397539       23.29149694096713
H           18.33923936076059       21.90562917662202       22.61182844517772
H           19.48001539503884       21.45913048914895       20.21816715033304
H           22.22489777045817       21.67225154386073       19.16396149380181
H           22.60174972064647       23.21403263583354       17.65321945800583
H           20.27334868326967       24.03916984689589       15.86264978241576
H           22.47172967463025       23.70885115173764       14.65201289216171
H           22.01286599100713       25.41055363943225       14.73229515897631
H           23.24464857015350       24.77217610465633       15.82299438580036
H           21.92466494816503       25.56795357258707       17.91471603749605
H           20.86414379841656       26.32526194410209       16.72228989209301
H           20.18673955292170       25.25787883452269       17.95384344782289
H           25.19192948761347       19.68908128992632       16.55409312510839
H           24.07111837876764       18.70315227488941       17.49124653389338
H           23.90876325959351       17.05290668203868       15.66010003422780
H           25.62875068620627       17.31134405890829       16.06193730200929
H           27.97145366950659       20.99964922936123       11.97146966211995
H           29.50595921951372       21.43411572832207       11.21502563138210
H           28.02098744111422       22.27671692088312       10.72940870632998
H           29.75756050690848       21.05386789927199        8.85817068073981
H           28.69564448777439       19.92501487721124        8.02158215987933
H           28.14466740585789       21.58762108789425        8.35779764220570
H           26.04995490907454       17.81087230822165        9.32759324342148
H           26.81916849341740       18.76682882658059        8.06158499642862
H           27.81201195185619       17.85234413467533        9.21495144456359
H           24.83001308239385       20.05555066151477        9.75306956714294
H           25.72815265835109       21.41589542019749       10.43410177372636
H           25.89756075601514       21.00835553940344        8.71812917271508
H           24.13840603322091       19.01226772409281       12.60054891806029
H           23.03790746818538       18.07947717285749       13.64834439250935
H           22.59911835236576       20.49609580886313       13.88969277572297
H           24.28945453389926       20.78603011944390       14.34325577609111
H           20.84526289855631       22.02695624924639       14.52320489940429
H           20.70827293543958       20.41121936183820       15.26097528358645
H           19.81979744587436       21.76421123498285       15.94556573537886
H           21.73202078107000       19.46451998745284       19.87987977974464
H           20.62060500909132       19.23977675442811       21.23595226824817
H           20.07858150773087       17.97479081463719       19.03417542379394
H           18.07179268405672       19.71244832907215       20.55235839376686
H           18.54537963018129       18.01290009569616       20.82107407525146
H           16.43714824902929       18.92076485304020       17.34976112013326
H           17.01305765236453       20.24486252493955       18.38840278320711
H           18.51840714828888       19.87906326742258       16.43269420617859
H           18.81846506574306       18.20510342734870       16.99395118648735
H           21.79743652307280       22.35116017776026       23.91458130763026
H           20.16340097819049       22.96822272170820       24.26781824923645
H           20.78964437545778       21.32085565509891       26.00883926572968
H           21.14955609516977       20.11313527655754       24.76573724734256
H           18.42385325061025       21.40074825380621       25.27987530291412
H           18.85807041768598       19.72555310840763       25.66136660337189
H           13.30512645460730       16.29328980126791       18.46301820673246
H           15.27435973784060       17.47207950519821       17.71868163469707
H           16.81839510792572       17.60563363679399       21.72827994907414
