151
 energy: -221.327479464432 gnorm: 0.003917705373 xtb: 6.7.1 (edcfbbe)
C            9.95909964948621       17.07795833129490       23.73786129574623
N           10.65139062024466       14.51103786260087       24.66775238090917
O            9.96141198731210       15.41410264843747       21.93369036083711
C           10.77566091145428       16.11288669730161       22.87686947430298
N           13.45893609100614       15.11916324776988       21.21373371838524
O           16.61137279452148       19.09579357831043       23.86324761146828
C            9.53262295388618       16.18792885484195       20.83559222875791
N           18.89623843523893       21.40209352362828       22.52942391212132
O           25.38169336206467       16.71475440524279       13.69111251154616
C           11.42724790475786       15.04581132251141       23.73734012033851
N           20.17306439992801       21.93035359813087       22.74618042818927
O           23.53712404273316       20.93486654413502       17.29484076928306
C           11.13593165601417       13.56951805251277       25.45782428869594
N           21.47805019388848       21.69696721953823       19.40890101507929
O           20.01107985998908       23.32504100951642       18.85633345718780
C           12.43504452620524       13.09690494862732       25.36264904996712
N           21.89724232177440       22.24805893273668       16.48745476728562
O           20.06268003671310       19.48232612575834       18.42975518734619
C           13.25401534313685       13.64969067404797       24.39514752425595
N           23.70819157135966       18.24043508347599       13.53998554847284
O           22.20420072570674       22.41791286354286       21.91280970245731
C           12.76120039776426       14.64755827086117       23.55534307931723
N           27.79288838272874       20.08409311143883       10.10756710263146
O           16.20429500225530       21.14578773679134       23.06337505770920
C           13.66166583768760       15.25441942003028       22.56914301835284
N           17.85959016371428       17.91547274740212       19.32700442368202
C           12.56417072975170       14.17539301468227       20.59150877436229
C           13.21922223632374       12.80228868152935       20.45076978789033
C           14.78846152534039       16.01034666109450       22.81134346474280
C           15.42438206091244       16.31925548079066       24.13046018822687
C           14.94976006791313       17.60883964734047       24.83184842649513
C           15.71280580743810       17.76600743548503       26.14980054992199
C           13.45018889148110       17.54412091379666       25.11271036290454
C           15.20351683734640       18.82746875226484       23.93867402172042
C           16.97164448933105       20.29000743337544       23.45139958090115
C           18.46241837548634       20.52585094517702       23.60835466951673
C           21.10550891344684       21.88955533313033       21.78344822903124
C           20.71284114733556       21.14668166023041       20.50180811523532
C           21.08731658005090       22.75994973657563       18.70313137884643
C           22.11047907336306       23.14885821982294       17.62566275735195
C           22.09695565526969       24.64331483710090       17.28545772251665
C           23.15528974344205       24.94571878904251       16.22762154532159
C           22.36753211336259       25.43542361209123       18.56565140290993
C           22.63474739380946       21.12906408367261       16.47639898501710
C           22.46080894582000       20.08885867443627       15.35620800062567
C           22.99511340403222       18.73374978529404       15.82636748081626
C           22.99234338366121       17.72023265394744       14.68295090892045
C           24.87620382009461       17.69782204107612       13.14747824656335
C           25.47744511621153       18.31737932282795       11.99349351195226
C           26.05976743788915       18.73944926604157       11.02771652250754
C           26.60408380615779       19.28560484039829        9.78634124190902
C           27.57577987520293       21.09474182483529       11.12165765495814
C           28.47735184160435       20.65185562848177        8.96490858789345
C           26.99422720258984       18.07806307187505        8.91720914253069
C           25.46755185660846       20.07449071745566        9.09880373299167
C           23.16017168524141       19.46994915975160       13.02120868264763
C           23.20378204135611       20.55736893350235       14.09964647005667
C           20.70550774427597       22.46840672680559       15.69546559106464
C           20.98629792185722       19.64484646448610       20.63397254803934
C           20.12077279736632       18.81202074276018       19.67796881065015
C           18.72818309711173       18.56627886298015       20.28736844436121
C           17.79107092046463       18.71046701096700       18.11533861411110
C           19.19830538358433       18.81493767624072       17.53443250574094
C           20.40220898689171       22.61079064825971       24.01061923874882
C           20.09422342687615       21.64732017737681       25.15335951168803
C           18.66056454148398       21.14251103572123       25.01076826695362
C           15.31381803024713       16.36683720784260       21.53200496509468
C           14.47883473016253       15.76281864670634       20.56587801271364
C           14.78132489215142       15.86420256362546       19.21412168438081
C           15.89495118971628       16.58197855676582       18.84586787003703
C           16.71676043636988       17.24461024854442       19.78309656765658
C           16.41493021267070       17.12690955042446       21.13239911120377
F           21.11076635987272       19.90341581078074       15.03609377284446
H           10.59314554091178       17.51170813851356       24.50433374226631
H            9.54615078968041       17.87823166785803       23.13060396211083
H            9.15443762944803       16.52690976662401       24.21394182305000
H           11.55462209268447       16.66542003674650       22.32500657185091
H           10.39157763326181       16.58608967345942       20.27962450659692
H            8.96447791910826       15.51053797293218       20.20126000934748
H            8.89049615833963       17.01803440455940       21.14492757918759
H           10.44600322083081       13.18571278793578       26.19640014024368
H           12.79250948954534       12.32255203811621       26.02175903388455
H           14.27226158314597       13.31015234554182       24.27216019828944
H           11.65540187009112       14.09574208453373       21.19176245267508
H           12.29416638192034       14.56325514767190       19.60631678950785
H           13.44313450431778       12.39094387968727       21.43223134297516
H           12.54904090450173       12.12333446303048       19.93252513894515
H           14.14641634631528       12.88322986003475       19.88796104229253
H           15.24499039617415       15.49037509131069       24.81716835051068
H           16.50097235078774       16.40033490942978       23.96924796564736
H           16.78451594218970       17.73687483729973       25.97580572939283
H           15.46284728385824       18.71248611846651       26.62180947677487
H           15.44898190898670       16.96090880114933       26.82959174613578
H           13.21234631978119       16.65452871121600       25.69023595599068
H           13.12849457181900       18.41724707203355       25.67524237796203
H           12.89679876033964       17.50745241122938       24.17951078806737
H           14.70977006471597       19.71811497430365       24.34119700711820
H           14.82522384799563       18.65494736583171       22.92684808686731
H           19.00540321590921       19.57924200169233       23.53473610707237
H           18.21280480860830       22.15719299286656       22.42962257823487
H           19.65706386498072       21.34051821034961       20.29508766960380
H           22.39239565266347       21.30091467910875       19.23862813285685
H           23.10908019683750       22.90937518262497       18.00694457879493
H           21.10791766601729       24.93811169086025       16.92583987083657
H           22.98000188380021       24.37080517929650       15.32245879118050
H           23.14226046164329       26.00259804593020       15.97639705140078
H           24.14249251477713       24.69353568448588       16.60856753229014
H           23.24723730814544       25.05373067659489       19.08283917641309
H           22.53061876218574       26.48370343826063       18.32851707386065
H           21.51894333327196       25.36150711793258       19.24196910625342
H           24.00498667486738       18.87825310684417       16.20940693229888
H           22.36613740366082       18.37727198801676       16.64289314988807
H           21.96200214568850       17.50714011346913       14.38058127809772
H           23.47948812476725       16.79514784344584       14.99514747400128
H           27.07302159286641       20.65131630597084       11.97890927586160
H           28.54744815677265       21.46691164777502       11.44515125790732
H           26.98464636318195       21.95199562509682       10.76357744241295
H           29.43458200967730       21.04175347728808        9.31039907895498
H           28.67407805278553       19.88432256329641        8.22298365578850
H           27.92335462961281       21.47765774462560        8.49410974978722
H           26.19484493062810       17.34126250686181        8.94131758777612
H           27.15226926693099       18.37651342036595        7.88475445005201
H           27.90010600061503       17.62275544844139        9.30709745592222
H           24.60725374311611       19.42533568262806        8.96034485822654
H           25.16617837975802       20.92387691076751        9.70715278682146
H           25.79667208801263       20.43097921783974        8.12654651574096
H           23.73245264407449       19.78258230034944       12.14813123591337
H           22.12037397629460       19.29143422505641       12.72914394331479
H           22.75507893244516       21.47207134964378       13.71377273822232
H           24.23616155036904       20.76592248339759       14.38271970832934
H           20.51149918247901       23.53470129814285       15.64353565970555
H           20.82847599906122       22.09095814111339       14.68716469635465
H           19.84474551928021       21.98441441325875       16.15926078952746
H           22.04164788962141       19.47545008033722       20.41690168889025
H           20.79061921895898       19.32137646401004       21.65487326524544
H           20.59075293245526       17.82648051427297       19.51794000568550
H           18.30390503605735       19.52395860751633       20.63197464998609
H           18.87104046824545       17.90832393941523       21.14373929231640
H           17.13156794589460       18.25480442709674       17.38224196901477
H           17.42362911215316       19.72663338344607       18.33827462922865
H           19.20378481699746       19.40019660972483       16.61479033519852
H           19.58363090412498       17.80535936469932       17.32996664492574
H           21.44301108829866       22.93408225437658       24.01779333253063
H           19.75069742110368       23.49025277148193       24.06418084798367
H           20.21790370279054       22.15927286931231       26.10615412212509
H           20.79000317380910       20.80831990172751       25.11468990843447
H           17.96317401325807       21.97582818433966       25.12950366335993
H           18.43620936948264       20.39167155668074       25.76728808963975
H           14.17652943576244       15.38284579056070       18.46091045990406
H           16.14850350162049       16.61574366614237       17.79862689890445
H           17.01034452223394       17.61160144371850       21.88735729245150
