151
 energy: -221.317526118147 gnorm: 0.009811439062 xtb: 6.7.1 (edcfbbe)
C           10.76448548198947       15.43700749060878       23.06427888658054
N           12.27555617166520       13.04364249605780       22.87221624590912
O           10.82785840168642       14.46025800662988       20.81976556523378
C           11.60643516839876       15.09852623852423       21.83442092949957
N           14.02692490777150       15.80967535640329       19.86234987387497
O           17.04253068442076       18.92600401417272       23.79950791635947
C            9.91889043856917       15.28101376623212       20.11129705725618
N           19.01280625973446       21.72786001285182       23.38630336224064
O           26.90663598288725       18.38598338041354       14.77841358030734
C           12.69330525569912       14.09412085597034       22.18199063888322
N           20.34432239058567       22.13428765086521       23.52591419310643
O           24.08354969603397       23.34363968365219       18.04319068408687
C           13.13164348406593       12.09223681651085       23.19507685416966
N           21.13174689294189       22.89625723102447       20.09283008282725
O           19.38108876027422       23.97444541363349       19.17027119060587
C           14.47127118601451       12.12796725183261       22.83831014090924
N           21.96141083303046       23.32059346844697       17.30715991214466
O           19.56513468549900       20.72962971513623       18.44309406080445
C           14.92122323888649       13.22263267069602       22.12682352138750
N           24.97892913257435       19.53882937810774       15.11382482337763
O           22.27761019914200       22.68500278713789       22.50904230490693
C           14.03268407201441       14.24319254430897       21.78409892880874
N           25.52416001429309       15.86534430003143       10.80533838722948
O           16.39964354468146       21.03216195778701       24.22559875851422
C           14.53632466437884       15.42553425289032       21.08180288323743
N           16.78690266936867       20.54879229569389       19.10006177343511
C           13.33298315877073       14.94446551320572       18.94039178400798
C           14.31716721868907       14.12562937723340       18.10672454954324
C           15.48136310181303       16.33319276452384       21.51437889894378
C           16.30405317424852       16.25895391706527       22.76352386401055
C           15.69392366843917       16.93081222664620       24.01313866226424
C           16.54045149159258       16.56580512203395       25.23610582554438
C           14.25546281529997       16.46991507376082       24.23415363763367
C           15.68656691592826       18.45277782826581       23.83463690672921
C           17.26234863957329       20.19938246495850       24.04243425988990
C           18.74964033264310       20.49722568059040       24.12544777971430
C           21.10004365446393       22.35124168739057       22.43968674326029
C           20.38229255704022       22.18168787966928       21.09978059421679
C           20.58287622749479       23.74858827427894       19.22398814337492
C           21.60415161348754       24.37258444240759       18.25784487720741
C           21.08379760847337       25.65846820976603       17.60225380408691
C           22.06231775877738       26.15681616116407       16.54259314017968
C           20.89857219365340       26.71894718228058       18.68676646412606
C           23.19939553971922       22.81759391549154       17.36729259547608
C           23.52010285591289       21.48361350760956       16.65549820672113
C           24.90163311870359       20.99877728404214       17.09864126346381
C           25.16839474313313       19.60461903498578       16.54773616695273
C           25.81043369701824       18.78003351318642       14.37513584563184
C           25.31786339460917       18.36310825518339       13.08887884285119
C           24.98170924533674       17.71889359566820       12.12875404562075
C           24.51950643823065       16.91982617619507       10.99667055002879
C           26.85140271843764       16.36460613313635       10.51154040490838
C           25.15584329228773       14.79518139740146        9.90657104105695
C           23.17358390978688       16.30968823354451       11.42383219210343
C           24.30168954391108       17.83178779915915        9.77240921983646
C           23.71241821677036       20.03766917250529       14.62981005251384
C           23.47549610180031       21.47002153768119       15.12708294011611
C           20.88402030031563       22.84195069025685       16.46643980901905
C           20.24961853665418       20.68840469696590       20.75547394465189
C           19.15047831891899       20.34506322154548       19.74753946440967
C           17.78312195613832       20.97901709842142       20.06199529132120
C           17.23135694021918       20.96693110784826       17.78223202469760
C           18.60208596211682       20.35108286270862       17.47697931671430
C           20.84707397647546       22.30019872969869       24.88012000983256
C           20.63467858728595       21.00939686135107       25.66981189233564
C           19.15993207998824       20.61161127761508       25.60536500238743
C           15.55846627860724       17.34430759877083       20.50719400350857
C           14.64833334716955       16.97266043870397       19.49357874428204
C           14.46039278572258       17.77595120482086       18.37767960804648
C           15.18619606389947       18.93735653398356       18.28238613869685
C           16.13951998581490       19.32067363369778       19.25308030844156
C           16.31814842262578       18.50959463143532       20.36762843686087
F           22.57514552349206       20.55387641875496       17.13807197799347
H            9.94575830915856       16.09880096969619       22.79300034829535
H           10.35895265345670       14.52055061010528       23.47933303888203
H           11.37984720090723       15.92973789393691       23.80936876058264
H           12.05873763621706       16.01550410280940       21.42450495438712
H            9.00297654072190       14.70587039672244       19.97820904816429
H            9.68986124375077       16.20442221951748       20.64569908113758
H           10.33369640661543       15.53472907916884       19.12870646880275
H           12.72042262815348       11.26611555521147       23.75878976626096
H           15.13517724489167       11.32341443688102       23.10909350316162
H           15.95240932526206       13.29468422115809       21.81224862770118
H           12.67603280649573       14.27596142730059       19.50005907667632
H           12.72212368854824       15.56895959815933       18.28540413950696
H           14.90642722794290       13.47674205843987       18.75107957962511
H           13.77475557545447       13.51005081878455       17.39470555293778
H           14.99341411352752       14.78367950073155       17.56516143120333
H           16.48352926286730       15.21316406519790       23.01096349092295
H           17.26710798573999       16.73159684174714       22.56774284244375
H           16.47457577245818       15.49889155447389       25.42863439674937
H           17.58238700201353       16.82841377145354       25.07388014973111
H           16.18155370451554       17.09553082117164       26.11585372265744
H           13.86692296597998       16.86998138813472       25.16663528019374
H           13.62265280640126       16.80720157369209       23.41916202981354
H           14.21362104671992       15.38563450619590       24.28013165779387
H           15.17083332324335       18.94860045143144       24.66261996023301
H           15.19184319752468       18.73448982809883       22.90011975155997
H           19.30488620718666       19.67897708712896       23.65401425920914
H           18.37771743662605       22.45270750861184       23.72429486527136
H           19.39860249754724       22.64664777333694       21.17559765625016
H           22.13660808708058       22.78998556340810       20.14973141323470
H           22.51954473565758       24.60880711523894       18.81203360730311
H           20.11072847787989       25.45864649910462       17.14587826391372
H           22.13197685115719       25.46642120498061       15.70661685167664
H           21.73750957661750       27.12286306308803       16.16526219659675
H           23.05430663922632       26.26935277428977       16.97454034195127
H           20.21332614195187       26.36559656894789       19.45178713651375
H           21.85211259602824       26.95300588411041       19.15427911545350
H           20.49068890265072       27.62832282279475       18.25616180222116
H           25.64363939252261       21.71512495677760       16.74944335620923
H           24.94978628140513       20.97177864284247       18.18799431209288
H           24.47332861674121       18.89825457166844       17.02087501451285
H           26.18946616758335       19.29145762235702       16.76622794622460
H           27.09652828645109       17.17497074646874       11.19737309806245
H           27.56617107530989       15.55716275343043       10.67086355123962
H           26.96471520656679       16.72415191425676        9.47806907440397
H           25.96497810108006       14.06538568486026        9.91225277927553
H           24.25588389110536       14.29818523928797       10.26112512360936
H           25.00225312644410       15.12422453210390        8.86636813460261
H           22.52789782588733       17.09509551529104       11.81468172795893
H           22.67740981913033       15.84141147470348       10.57321592505643
H           23.33740738456167       15.56723471222840       12.20678181741817
H           25.22570327133257       18.33078614189680        9.49327191770656
H           23.94928351840970       17.23845293149211        8.93238946677796
H           23.55625119918657       18.58633680074431       10.00395196380565
H           23.72012900400659       20.01535925499974       13.53924002899145
H           22.90005388292996       19.39479198901768       14.99189456402959
H           22.51737102006609       21.81485901445152       14.74831145591710
H           24.26057377881316       22.13213190453589       14.76233564156276
H           19.94168859092473       23.06725760694276       16.95716274906817
H           20.90403430476537       23.34353378695831       15.49769849772053
H           20.93963958290611       21.76790677853774       16.33869846659716
H           21.20122789388160       20.34318829780969       20.34641928397168
H           20.04034969609135       20.13469314639270       21.66697612023916
H           19.02736878868635       19.24624346880103       19.74842073431800
H           17.86726189406425       22.06383171826149       19.94813307068949
H           17.46842856392568       20.75954567603054       21.08085329030083
H           16.52608835037663       20.67778581417485       17.00891663446818
H           17.32142246475010       22.05753135086047       17.79385516191910
H           18.97765445565813       20.69698397608392       16.51555319364050
H           18.51000907906856       19.25224494779370       17.46021197239479
H           21.90345872814673       22.55942624031407       24.80469851076429
H           20.30428678830171       23.12542852166667       25.35375585369180
H           20.94189611408216       21.16149088155452       26.70275298255800
H           21.24433584644908       20.21736701853242       25.23529336608274
H           18.53956497998911       21.37319035251966       26.08487459999284
H           18.99329469508391       19.66036554272274       26.11047573217736
H           13.75011017229664       17.51537528660829       17.60867662788308
H           14.99516668763525       19.58152394203966       17.44025716866174
H           17.03127842715005       18.75937628353477       21.13622208341630
