151
 energy: -221.325623416712 gnorm: 0.009748276431 xtb: 6.7.1 (edcfbbe)
C           10.16154309534469       17.73007350926210       23.87670702387238
N           10.36262168899443       14.98603410174355       24.44444810043089
O            9.97429418832610       16.38647955187711       21.84871565817155
C           10.85479928037365       16.77077878493476       22.90787653432898
N           13.36374232499186       15.48199120443746       21.18081801943266
O           16.67148631354794       18.95616249735454       24.06771785862590
C            9.86565804494017       17.33794089715290       20.81063403446100
N           18.79388982794893       21.34995180370636       22.58294931283007
O           26.60842909016792       17.36339070293119       13.94400035841141
C           11.26948531081034       15.49888741324983       23.62676198009622
N           20.01203277737583       22.00421598811084       22.79461038031616
O           23.67733479487312       21.24054990115868       17.13239086871801
C           10.65109440146362       13.89571542972745       25.13356794296942
N           21.32496826857421       21.57325797952856       19.47803653273855
O           19.54932150323372       22.79360660615365       18.80954941115906
C           11.87758524697789       13.25572107908308       25.05904336016963
N           21.56116917244139       21.69842596978937       16.51975878889640
O           20.67553796917936       18.81984593164194       18.77755889131020
C           12.82672816546023       13.77595286015819       24.19908306428158
N           24.51353236718936       18.23663312671053       13.78692888458803
O           22.01474601798693       22.60619628576386       21.95052896458026
C           12.53383781996798       14.91359191377976       23.44914251861050
N           27.86355402967398       20.54533273478035        9.73425414576293
O           16.12066411301458       20.83007462877870       22.97093629377128
C           13.55889666578458       15.44697670529640       22.54600166368087
N           18.31635131485809       17.43457868232377       19.61896837212854
C           12.33502724409474       14.76571173736955       20.46779151293958
C           12.73632251119672       13.31144053917524       20.22209563425040
C           14.80362468288570       15.94527980922646       22.86375780041006
C           15.45052175079699       16.07190289250755       24.20719575198788
C           15.09337944926454       17.34280826775117       25.01115216771609
C           15.98443597128082       17.41117389490553       26.25363105617167
C           13.62815706390414       17.30341355778538       25.44239541126630
C           15.28313190571833       18.60323203793945       24.15854125957501
C           16.94264422174813       20.11623387873195       23.50847516729338
C           18.39217884635718       20.52141459861555       23.70749661558350
C           20.96943962421168       21.97231205367775       21.85387066194701
C           20.67078881108547       21.06319312693677       20.65767700108612
C           20.70763769736215       22.42481389595162       18.65317401691657
C           21.55792198518834       22.83253760275426       17.44404633271033
C           21.07627145647086       24.15229839934841       16.82221620740876
C           21.72334215483552       24.39709862379839       15.46271332793444
C           21.41589772855885       25.28631743575771       17.78880520408761
C           22.67213321356893       20.95373882864629       16.47682533744480
C           22.79274967882397       19.77539765719060       15.49627002220129
C           23.75798333220708       18.73027491248482       16.06241888609842
C           24.06129266227858       17.64756232965857       15.02668806089733
C           25.77763976644378       18.06124318903493       13.35554528169983
C           26.08665024912214       18.69889376258806       12.10021386764268
C           26.45747779650392       19.13895477479809       11.04255422324458
C           26.71097831178302       19.63905321368213        9.69311374350691
C           27.73586246738290       21.62472666802945       10.69248846959498
C           28.28656067146512       21.05433695983127        8.44546214834068
C           27.03915416519366       18.40147559584783        8.84022109410698
C           25.40058023924208       20.28311852297776        9.18824228794530
C           23.56814687159706       19.14979075881141       13.19240789732564
C           23.29488624628028       20.31234074722543       14.15151598646337
C           20.28928414851411       21.34039795542684       15.92384863986814
C           21.12747359734197       19.64015765203488       20.99399866321509
C           20.45437361053452       18.55290647493849       20.15226344636995
C           18.95943955364154       18.42135207750016       20.47517629893108
C           18.60449059661094       17.67773049875759       18.21644469470900
C           20.11427881741603       17.78020996702513       18.00865873760330
C           20.15815523104596       22.77489007270801       24.01995899500944
C           19.85834711061873       21.87211906478570       25.21451628326145
C           18.46349371086367       21.27401876592779       25.05252351553307
C           15.42188471303938       16.30159032193100       21.62449497080421
C           14.49741902399700       15.98655124199879       20.60322875809213
C           14.81262192650764       16.23290009116281       19.27584635889911
C           16.05130882781658       16.75805212199610       18.98044787758474
C           17.01772406119702       17.02863999890651       19.97117170037335
C           16.67807015960376       16.81208223241198       21.30138730575147
F           21.57184574110518       19.13228903669106       15.27728189828422
H           10.82500083042448       17.97794794935001       24.69805981544932
H            9.87616104505737       18.64632917148010       23.36788194562559
H            9.27488131239020       17.24365260887600       24.27181413502960
H           11.74575906352470       17.24918407980733       22.46595559596086
H           10.80790673690117       17.40626373600577       20.24966945072722
H            9.06856110429723       16.97431157416948       20.15703388235448
H            9.60318781045741       18.32650570662224       21.19046394418723
H            9.86062933113812       13.53218562797818       25.77551923208915
H           12.07609215248954       12.37804575087902       25.65220579641285
H           13.79166890579599       13.30323309536133       24.08878380806332
H           11.40732748868360       14.80501661767709       21.04138574087244
H           12.17219811160089       15.26822046180937       19.51083994414944
H           12.85964108614957       12.78718547832587       21.16711191707928
H           11.96567645103908       12.81077184832626       19.64339101194025
H           13.67515514200240       13.26682327581277       19.67438328271060
H           15.18891120293028       15.21189935174057       24.82545922625483
H           16.53058669442946       16.06064010253793       24.05344839438938
H           17.03335881378302       17.41197603687694       25.97387960358524
H           15.77557428208714       18.31486755226311       26.82000883173480
H           15.79393146522666       16.55216995722013       26.89135762352817
H           13.41229572284658       16.38118406351292       25.97595238777927
H           13.39915294086216       18.13935171149301       26.09881796560512
H           12.98123043031591       17.35612969775766       24.57296715905126
H           14.75744429585970       19.45340628035824       24.60611484413497
H           14.88684159711477       18.45784731639490       23.14808044311328
H           19.02805441595689       19.63260759372931       23.74281372142693
H           18.05150657175606       22.02615994920957       22.39235572143605
H           19.59666745740858       21.10208436022730       20.46131119972063
H           22.29864383658428       21.34751447550310       19.33465399551453
H           22.59694209635258       22.95924253030606       17.76668628444637
H           19.98678542714681       24.12315479912905       16.71609490413939
H           21.41020431903240       23.65315395824100       14.73544206980741
H           21.43643762013095       25.37753915858335       15.09332005420072
H           22.80755448581480       24.36301253071711       15.55027531843701
H           22.49281418924021       25.37173445937531       17.91603963050712
H           21.03376565475382       26.22934927013723       17.40812773135845
H           20.96732284958535       25.10191842710678       18.76287238108274
H           24.67233894755616       19.24231581512927       16.36183658440160
H           23.30708053479946       18.28162828536344       16.94881993536777
H           23.15729276986636       17.06363853083266       14.82589997946633
H           24.84771250315974       16.98475353630328       15.39183391153048
H           27.40003027944449       21.22768514376103       11.64965416336930
H           28.71766653879622       22.07678703299536       10.83147581099202
H           27.03963589916418       22.41461494834138       10.36844907854094
H           29.21285335054701       21.60945688603006        8.59295375838167
H           28.49037037354421       20.23175406211509        7.76572919763731
H           27.55355785977246       21.73337917099005        7.98433048844893
H           26.31203068431749       17.61901428371778        9.04439268420916
H           26.99825392341830       18.63913724711763        7.78333338947585
H           28.02827565958241       18.03172115434391        9.09542387328387
H           24.58677223141147       19.57055347451317        9.28453527851916
H           25.15700162266225       21.16874118615772        9.76954425098165
H           25.49976486195771       20.56053675672419        8.14278942537107
H           23.96827604711906       19.52426979276276       12.25116034593082
H           22.63454030946292       18.61057133993204       13.00310859532579
H           22.55261018303813       20.98188358160278       13.71743036774259
H           24.21163241610046       20.87315694039632       14.33516669830577
H           19.58661947630040       22.14732891828435       16.10350733060908
H           20.38718002375865       21.18434743035896       14.85163448900189
H           19.89090499596327       20.43580378318470       16.38385521121987
H           22.20727140178129       19.58568219958080       20.84625256169547
H           20.91313936279495       19.43654838096740       22.04163457672587
H           20.93310030955902       17.58534586740669       20.38927572449318
H           18.46333303946577       19.40161010700169       20.38030215844534
H           18.88220736818579       18.10118578838135       21.51303086027861
H           18.24771337991277       16.83599029505825       17.62433473539253
H           18.13002070898629       18.60930657027607       17.86147173442965
H           20.33568928480364       18.00439868701142       16.96548020185478
H           20.58562609373106       16.82487949703827       18.28424008169395
H           21.17995033748197       23.15314771002901       24.03933484712876
H           19.46160857322045       23.62029110712622       23.99794377540670
H           19.91510118313450       22.45288616909855       26.13369259619793
H           20.59701541999821       21.07223654153388       25.26060525149170
H           17.71592021856537       22.07221684562530       25.04971614698899
H           18.23515347373095       20.58917278421982       25.86751469729730
H           14.11370618831599       16.03317392465213       18.47865853544735
H           16.26073073451570       16.97438533799495       17.94762782332446
H           17.36824808859884       17.02162818447826       22.10035130516267
