151
 energy: -221.322349148882 gnorm: 0.009360854936 xtb: 6.7.1 (edcfbbe)
C           10.10430831047587       15.61114126815183       23.90924390777336
N           11.63650834986449       13.21604329267370       23.96408808332152
O           10.21759771729125       14.40886461587864       21.73781615133565
C           10.95185973693741       15.14564829561128       22.71478906266683
N           13.68486853729268       15.46584905175550       20.56686350550508
O           16.53175319510703       19.29367249174425       23.82212000374113
C            9.21741906145155       15.13771273682616       21.05052886576869
N           18.88490967711648       21.75677861520573       22.84663707734986
O           25.65189489603410       16.46812413485047       14.56024232452789
C           12.04614027093101       14.19652049807211       23.16898014165140
N           20.17238020170003       22.20391265791801       23.16456589536537
O           23.80509347091260       21.41829280102188       18.14492265074034
C           12.49995775077000       12.31547924231020       24.39224395997060
N           21.60735805921457       22.53080094097587       19.86981315735242
O           20.06301638166878       23.73001506771647       18.72601546908058
C           13.84695258403196       12.34404507231297       24.06414669484058
N           22.27761140012046       22.51894302336407       16.91749056684762
O           19.88980048167251       20.64463919160507       18.48377910453951
C           14.28454103210442       13.36688833278178       23.24593457471147
N           24.11831427942478       18.14235690818269       14.62313008611731
O           22.25706062564424       22.69640745657223       22.48187724331897
C           13.38000865365822       14.31969249201071       22.76816418637863
N           26.93850868363304       18.65649800087428        9.71485059247825
O           16.18924171483890       21.41078613390822       23.18370634356092
C           13.93435697221192       15.37932814241086       21.91751051955106
N           17.61718771088753       19.09816493059177       19.18319188108318
C           12.88782515962435       14.55308498260400       19.78671735660429
C           13.71794390946578       13.37103238509809       19.28496761906925
C           14.90047092898463       16.29095650872471       22.28434949367448
C           15.44892703926217       16.52999072347468       23.65427666163247
C           14.78819435043870       17.69477165567017       24.42636015063087
C           15.30735038643110       17.69266376566051       25.86630048604168
C           13.26752173714457       17.53564392826955       24.42739887190498
C           15.11571049403476       19.03905567934786       23.76849693426966
C           16.92878436242328       20.51150798050465       23.52324245536851
C           18.42003088000651       20.70307467870924       23.74140507574759
C           21.12726372357023       22.29531304997833       22.22572667837381
C           20.73141013977125       21.87211594461981       20.80977771307227
C           21.21050993159673       23.33336939362500       18.88012615823286
C           22.34049841888346       23.62721223253158       17.87998995425630
C           22.26145895834236       25.01315727226067       17.23233481894675
C           23.43119909390844       25.20926068712515       16.27108509395821
C           22.30293281862138       26.07823965399407       18.32803368546820
C           23.02339187111860       21.44326474674710       17.19180735511231
C           22.97417789867167       20.21204831471742       16.26342530751866
C           23.77396937691914       19.06050717755829       16.87453391043153
C           23.70062391076215       17.83107051121988       15.97193715314106
C           25.04822753944170       17.38768798266986       14.00577170112988
C           25.26522130099075       17.71474945825950       12.62028639835432
C           25.47733994935829       17.92784623428089       11.45455052478269
C           25.56459898062247       18.25193856026088       10.03349517504517
C           27.51613207593695       19.61328415498407       10.63509460762832
C           27.13773478260477       19.08071497018597        8.34460089193194
C           25.21431358762598       16.96412256557949        9.26510067509131
C           24.49446376175062       19.33305380243003        9.75921570887976
C           23.40879250804415       19.23475730649164       14.00251609147811
C           23.50551385080988       20.50207520154299       14.85996123163389
C           21.22529089552418       22.61936247142056       15.92743988550071
C           20.87908491568923       20.34748766583042       20.65639074624937
C           19.93420646495564       19.76828868813758       19.59485036069528
C           18.54404209164487       19.52596083255571       20.20603458413743
C           17.55733982329541       20.07742420394342       18.11929312532095
C           18.95523539186046       20.20563328812862       17.51749008310129
C           20.41824296576016       22.60523094567982       24.54220853927917
C           20.06179339967358       21.45142531152105       25.47533578319152
C           18.60925691654681       21.05056182396467       25.23383120124691
C           15.30356082524532       16.95109560180664       21.08720173545584
C           14.53797593321688       16.39947805678838       20.03645347015658
C           14.74902843713040       16.81057495970102       18.72598515218242
C           15.74348548902333       17.72852147869888       18.47746590303544
C           16.53848270867280       18.28111543733177       19.50644449947098
C           16.28619129688381       17.90072485422733       20.81653380823295
F           21.64433111271963       19.77166431981109       16.15769171889785
H           10.25221458980033       14.93866165042885       24.75105923971195
H           10.38311577020685       16.62181086422407       24.19782212557881
H            9.04734940949695       15.59763044422587       23.65318571568666
H           11.40401388194415       16.01825705597832       22.21555773731381
H            8.31964184393288       15.27735656732340       21.66439263852445
H            9.59187726012397       16.11694154323128       20.72910699262409
H            8.95873105812462       14.53350901138925       20.18310432316847
H           12.08740901384790       11.54489355892919       25.02916890552488
H           14.52508093505801       11.59299806753691       24.43503803646080
H           15.32218599815656       13.44052608108101       22.95309941752363
H           12.05924802412474       14.18862183396950       20.39843478192331
H           12.47717410860389       15.10599836593664       18.93799439743990
H           13.09663235974351       12.71380491144228       18.68216829468571
H           14.55283705915101       13.72225234097377       18.68202359031816
H           14.11106169899499       12.80452410561914       20.12712143524383
H           15.32133973709187       15.62563942799460       24.25184783435463
H           16.51714202951977       16.74000486187017       23.57267891183517
H           15.01506211353668       16.77384470988277       26.36753637194116
H           16.39177540985565       17.76571993618200       25.87793610692057
H           14.89561597668782       18.53274656142277       26.42020894415580
H           12.99582359630327       16.55742968530054       24.81281395058619
H           12.80267332638182       18.29697880542344       25.04668664805337
H           12.87888342279169       17.62704371813390       23.41764624204768
H           14.60624135823275       19.86078456321606       24.28297639470796
H           14.80427261486909       19.04693840676867       22.72088742720874
H           18.95874813914682       19.77953234416391       23.50700240638383
H           18.21700754304079       22.53029443954111       22.88091356583475
H           19.71204633627561       22.19458760340017       20.58966717137870
H           22.58181845365994       22.26762935685998       19.92689376280236
H           23.30227010759548       23.53797430878592       18.39412484282613
H           21.31145149304840       25.11212075390190       16.70325271805327
H           24.37022547710076       25.15873888580636       16.81830547139289
H           23.45025756304389       24.44399158669084       15.50076820339687
H           23.36359773645998       26.18210600321605       15.79184282387283
H           21.50149318470234       25.91771899249781       19.04609021593110
H           23.25308687517993       26.04932530603322       18.85601387345897
H           22.17635778276583       27.06360235148778       17.88939735459139
H           24.80395125081691       19.38832260885935       17.00813074483896
H           23.36618699913924       18.81831119370017       17.85625209845624
H           22.66747605591179       17.46279798813843       15.94687695025430
H           24.35030413952419       17.03997199005011       16.35005481419127
H           28.58065776393688       19.69037879270276       10.41804853922520
H           27.07484197652711       20.61863855436397       10.55521971711474
H           27.39806799263488       19.25651010006487       11.65697250946392
H           26.71748842584365       18.34961901798188        7.66110238055800
H           26.70505487704608       20.06917278397900        8.13093821303252
H           28.21174508893045       19.13681832890285        8.16425592936192
H           24.37422945372718       16.46866725971709        9.74697501705258
H           24.93800734455181       17.18566311550531        8.23531805041768
H           26.06438537728744       16.29294003371123        9.28029181858067
H           24.44733737922108       19.55511694829984        8.69698802804718
H           23.52220732184786       18.97064373719553       10.08289378231714
H           24.72381838427682       20.24541955841404       10.30603637597676
H           23.83058535933586       19.42106988551601       13.01535331158845
H           22.35252131491102       18.95893338887777       13.89402372387362
H           22.93505376593896       21.29356353526548       14.37952815187779
H           24.54312618964519       20.82061639371443       14.95359309947654
H           20.97099650658267       21.65219731662897       15.51485429826322
H           20.33778114656138       23.02300271869705       16.41683201223692
H           21.52669717406301       23.29266516027180       15.12508234887159
H           21.91571972764139       20.14484936983055       20.38052823403916
H           20.67658877075392       19.85350058244246       21.60501056585206
H           20.32273027405565       18.79356498490614       19.24893284508704
H           18.19965937932137       20.44515406212664       20.70859082010776
H           18.65915718471438       18.73524353832912       20.94541365992800
H           16.85016814666552       19.78050919160084       17.34497283088422
H           17.25577470459619       21.06437462553338       18.51818071801104
H           18.96861619243509       20.95777977652559       16.73082324499353
H           19.27309006885856       19.23628992313970       17.11072459596863
H           21.47083249052010       22.87753124601767       24.61494490117152
H           19.80076200537507       23.48101974622354       24.76939418485830
H           20.20278113691531       21.76125653747783       26.50946936297667
H           20.71811520581242       20.60497291801619       25.27183950479034
H           17.94686869496253       21.88181351181926       25.48966083640856
H           18.33494970797328       20.18921366709956       25.84147678990867
H           14.17486417540966       16.40397687390248       17.90730161578338
H           15.93696764329774       18.00578787968714       17.45352351009560
H           16.85548076381588       18.31097929991055       21.63276840541461
