151
 energy: -221.321488817761 gnorm: 0.009503012710 xtb: 6.7.1 (edcfbbe)
C            9.85126467362461       17.22928754476724       21.90020322970719
N           10.26800744738104       14.73404249011803       23.25922355823930
O           10.32029549412843       15.41724961296213       20.30220322449838
C           10.83357454116658       16.16776283899828       21.40960826136806
N           13.91266111223632       15.13320182635781       20.64712664958467
O           16.19116706862127       19.44788781013888       23.55370061727220
C            9.03602665504407       14.84326478684147       20.46840911706645
N           18.54099599950485       21.88501120391823       22.53294117932461
O           27.92875625442652       18.60897335810068       13.64953487836642
C           11.25810179789089       15.22686993815419       22.52436977554171
N           19.71546611634491       22.51297016691523       22.95525006862118
O           24.86679693157978       22.66245062032885       17.27824525169146
C           10.53220198144565       13.87615160686173       24.22930750940902
N           21.64278484738554       21.79713245311795       20.02147952433038
O           20.60449571603189       23.76755959375817       19.76418733773911
C           11.81806804535388       13.46529335002958       24.54122568816634
N           22.71105090360564       22.06190691931021       17.50147805567730
O           21.36116234488521       18.82607183108842       19.53954991478312
C           12.85794081025972       13.97210532893844       23.78343148593158
N           25.83146138069525       19.04843980140992       14.39823454656879
O           21.89716728687350       22.93087735356426       22.57276223515999
C           12.59803709309472       14.86816555768998       22.74616965183384
N           25.49314268557121       19.77845962144242        8.84423384248070
O           15.88718531454323       21.34360592422287       22.40752117870048
C           13.73973400873941       15.39535006188496       21.98749629371261
N           18.86735404458988       17.50467165355869       19.89600723096441
C           13.18174062466913       14.15863466418169       19.87726685398414
C           13.68439864708700       12.74222928550419       20.15742865814776
C           14.79489969173021       16.14109259449021       22.47123442212336
C           15.01448016870230       16.61528775070621       23.87419454783586
C           14.35976101329520       17.96813631501828       24.23081728314459
C           14.71371112845479       18.32920061573300       25.67497527664846
C           12.84074073424416       17.87362289658434       24.08981364885030
C           14.83065337291965       19.07561203008019       23.28370109871759
C           16.57767856461320       20.61464125733718       23.08304928279212
C           17.97649175040551       20.99515522639904       23.53868070849109
C           20.85491449181811       22.36783501277304       22.26066827145334
C           20.76853239348907       21.38187936064863       21.09225735728608
C           21.48282458192033       22.98553596473660       19.42657823995021
C           22.49372593681461       23.26168608436545       18.30915222276393
C           22.20207300533328       24.50077202194869       17.42922491377073
C           22.44450956090756       25.77421213351935       18.23637563807501
C           20.80318032747665       24.51872226562929       16.81709825176930
C           23.96438563069792       21.84732291207788       17.07888139293476
C           24.31149875970418       20.54001210950600       16.34190364214033
C           25.79195210747988       20.21476810252863       16.56046704697777
C           26.19881050869142       18.95844620603872       15.79384660594423
C           26.73447259196658       18.81785698066865       13.42810661447624
C           26.20352131452449       18.79326151253818       12.08868993323333
C           25.87540034704588       18.70834358596622       10.93320194235313
C           25.32212853847523       18.52913076870118        9.59232109170834
C           25.01022940156606       20.96081167352986        9.52907924363600
C           25.00389559793543       19.74676598856423        7.48248655788872
C           26.12428779216824       17.39951963698953        8.92333599842015
C           23.85301724899128       18.08209048055597        9.77504191150686
C           24.43188764486642       19.31376941305180       14.16707186010076
C           24.02922208518212       20.62973285050211       14.83923323921315
C           21.55627692750145       21.23626497842225       17.19214242821962
C           21.16146289809182       20.00571292997025       21.63180906501659
C           20.70048118460275       18.81418055082416       20.79318050305412
C           19.18412526976213       18.74972134855416       20.57339629263175
C           19.55882522299567       17.43876047305956       18.62237078871509
C           21.06375626764801       17.63778862370498       18.83546294775380
C           19.66449191100217       23.23648443302190       24.21585577647185
C           19.20110077126274       22.27608887401654       25.31130651833285
C           17.85502536195198       21.66504945889884       24.92275590900411
C           15.67886725968622       16.34858229916065       21.36830756584125
C           15.09672435682021       15.69858287387345       20.25508756492373
C           15.72931164111829       15.71959760780087       19.02075167822968
C           16.93725100820518       16.37021724925932       18.90703457819674
C           17.57251709002686       16.97749844881598       20.01091834071567
C           16.92266227999442       16.96809440255749       21.23952254355668
F           23.56235290519217       19.48699116270926       16.87713893781811
H            9.44183048269700       17.75994953305167       21.04541025517807
H            9.04522567242823       16.76469205609638       22.46131731573296
H           10.36102979397705       17.93676958599614       22.54430935447141
H           11.72302945306094       16.64777084079157       20.98660353522994
H            8.25179714297300       15.59778697623240       20.37176348114106
H            8.93804218329703       14.11439729542977       19.66646665491043
H            8.94884139161273       14.34490859568594       21.43650514372496
H            9.66982632729109       13.51590362381940       24.77601974269473
H           11.99699237448202       12.76988262926023       25.34484326006562
H           13.87628720179107       13.66861787212475       23.97681500341013
H           12.11846679137035       14.23472922803608       20.10889827050023
H           13.31295834289706       14.40029794706671       18.82096175410015
H           13.53235098570522       12.48888984572089       21.20513483253051
H           13.14301391755537       12.02824024267812       19.54404015867074
H           14.74630264192331       12.66820490478170       19.93440546749381
H           14.61650968086795       15.87682244117591       24.56840227910434
H           16.08854950168447       16.70029076517702       24.04078502032203
H           14.33529601910963       17.56825945821025       26.35160498262303
H           15.79056346796559       18.40110859335139       25.79952193031509
H           14.26824883085249       19.28332517667646       25.94660610622172
H           12.36567722287931       18.78396055638651       24.44765412615837
H           12.57132629842553       17.72699238102009       23.04861085399161
H           12.45715459366712       17.03725116943966       24.66735282050903
H           14.21143754200468       19.97098453462951       23.40280575406691
H           14.76206358444605       18.75166712359687       22.24192614709911
H           18.60235920790548       20.10028465643877       23.61123614594323
H           17.83941348777273       22.58028270529273       22.27245303202903
H           19.73512770853994       21.38916872517655       20.73543589336866
H           22.42003035130747       21.19554261295157       19.79176312528800
H           23.44976179652475       23.46947409499812       18.81143004430531
H           22.94153441753760       24.46495831364071       16.62067532029045
H           23.46864552841043       25.80773839010203       18.60106825014384
H           22.27520202697068       26.64757377777985       17.61403139459610
H           21.77097977401883       25.81345141286324       19.08608137953344
H           20.65924191322271       23.69644623566291       16.12133349040484
H           20.05071280728772       24.46954075237485       17.60031518595844
H           20.66643015191860       25.44935419069675       16.27335503630430
H           26.37514208290154       21.07647090370738       16.23869311638558
H           25.97363261576105       20.06267346080275       17.62449148621221
H           25.69894488519012       18.08734919401742       16.23222885020333
H           27.27964224643496       18.81507435728250       15.84852326750792
H           25.41188815341312       20.98590418053490       10.54025956667677
H           25.37220543197240       21.83425534193452        8.98933085570389
H           23.91188193087590       21.01930484208489        9.57770814374670
H           25.33835745592798       20.65868314368392        6.98785668511144
H           25.42437700797342       18.89984437713348        6.94670701999674
H           23.90610924872255       19.70690907736903        7.41419881900475
H           25.59315079613937       17.00687334204089        8.06073044334770
H           27.09446004405852       17.77597684371229        8.61271983503915
H           26.27458990981170       16.58929847447658        9.63223409182472
H           23.27351843527950       18.85566253809426       10.27175365643789
H           23.40710992822155       17.86447574832102        8.80878100485017
H           23.82486426627798       17.18189130976578       10.38368109971820
H           24.24757483043193       19.36440841817956       13.09426475980220
H           23.84019807764937       18.49837365569673       14.59687475946088
H           22.97454189346999       20.82030731787493       14.64971949959848
H           24.61303573634883       21.45846391060635       14.43842587216897
H           20.66202874581998       21.81553444070223       17.39895382801361
H           21.55564444222363       20.95467303005514       16.14215785914075
H           21.53619553191909       20.33302167803983       17.80345748426867
H           22.24847672757934       19.97127432535337       21.71900059721769
H           20.74415477406268       19.88977042533603       22.63107607731759
H           20.99562608390485       17.89499599474139       21.32828308246535
H           18.86655420064194       19.60810642602555       19.96078985434050
H           18.67433509588332       18.80152003196363       21.53113501564552
H           19.42290512828280       16.45109304627541       18.18316287529071
H           19.18558681785023       18.20491825152242       17.92304820311201
H           21.57676271607843       17.71622936012009       17.87711073334976
H           21.46363581482067       16.78033197057875       19.39528264207783
H           20.66914885546187       23.61541399090524       24.40750156046418
H           18.97133472407040       24.08052239943928       24.12281362332542
H           19.10830319816919       22.81411354204967       26.25379479603238
H           19.94668248205500       21.48759924032372       25.43410578577814
H           17.09876701119389       22.45125353414522       24.86580465661477
H           17.53947720242889       20.92684751344403       25.65861433004225
H           15.29052562715118       15.24775262793796       18.15431786370566
H           17.39414923323820       16.40523503292693       17.93215938094327
H           17.37319051987293       17.41174578631051       22.11331986808138
