151
 energy: -221.316137807402 gnorm: 0.009174291398 xtb: 6.7.1 (edcfbbe)
C            9.50858098558129       17.09259127539562       22.89166670531522
N           10.19391052248496       14.75664161863357       24.31068453993614
O            9.87227459094209       15.17196041947497       21.39846349365077
C           10.49062543652429       16.07254678319341       22.31701052507691
N           13.47759151053809       14.87729965062610       21.22579281475283
O           16.28704240521436       19.54714141250554       23.22373596774907
C            9.54900034489872       15.73669850331245       20.14666584559205
N           18.53914316015770       21.93443327406050       22.72772440344718
O           26.83159979949161       17.60803217776300       13.91242464150397
C           11.06706316650011       15.20669113066447       23.42108653719959
N           19.90979129685975       22.19830389216371       22.76632855407536
O           23.99649029944797       21.33763898834292       17.58063419548808
C           10.60920677808531       13.98151597198779       25.29616719716442
N           21.13376134411920       21.30713986260070       19.56991251787843
O           20.10335554902970       23.29684769601934       19.59722008066024
C           11.93500387092240       13.61305061136741       25.46100848000858
N           21.89415272473622       21.85148621921859       16.98497844619893
O           20.52681474905982       18.73761268216731       18.82821118085792
C           12.85245107925905       14.07556158232822       24.53479454378316
N           24.75644983174190       18.51601000089721       14.00550085185541
O           22.02630165432284       22.13519219081544       22.02694511455181
C           12.43057513866294       14.88622982280744       23.48126826622752
N           26.74261104506262       19.24372616169481        8.84849330467282
O           15.85765876402106       21.64704044014688       23.88367735058373
C           13.43608330611849       15.35275884997332       22.51804070865355
N           18.22530642918673       17.21692850715360       19.56588940671946
C           12.67292781301864       13.80376666745389       20.69600452369041
C           13.28822549375092       12.44147364311705       21.00997182988010
C           14.49443658197855       16.20530895932145       22.74585993926030
C           14.87964350516796       16.88278354710338       24.02215949834860
C           14.36309165724295       18.32682018521200       24.20978133282564
C           14.82492379355910       18.83643047612917       25.57717165869347
C           12.83588141603499       18.34657772856908       24.14155010133720
C           14.88311430565840       19.25860078910388       23.10190380715741
C           16.63577962998059       20.75888507663614       23.62523641567424
C           18.14816146405349       20.92470319588332       23.71633557197104
C           20.85404886285978       21.77982951986455       21.91583493416586
C           20.46429449722213       20.83901550616106       20.76257071707574
C           20.94936906218183       22.55416411357185       19.12045489583362
C           21.89902949215197       22.92556500089167       17.97683756192180
C           21.63357745649919       24.31378051197940       17.37161411361922
C           22.52429569885672       24.54013171250062       16.15042049185021
C           21.92233281261980       25.38855675042101       18.41811716552441
C           22.99961248070219       21.09969537129071       16.89437416274099
C           23.11907040010666       19.95784291624041       15.86983476987751
C           24.18489263690059       18.96261475632100       16.33555117847524
C           24.43357283614931       17.89666942096439       15.27030063032645
C           25.96431129153305       18.34419315891568       13.44235721163574
C           26.18329736139841       19.06048152936318       12.21199228966700
C           26.50541080301782       19.56274445439672       11.16647189993510
C           26.76331916249242       20.26042263997839        9.90809823038039
C           27.74399895283877       18.20787671878503        9.01548779185356
C           26.75756091599239       19.75850388951887        7.49340193423118
C           25.61278649018602       21.26381226808791        9.71991266911223
C           28.09487252189689       21.02856571546934       10.03928536883343
C           23.73315134398710       19.40062911354116       13.50172123581740
C           23.47781992122817       20.53673962171442       14.49800490942698
C           20.62922549698301       21.68181578850426       16.30171082696184
C           20.93210441942293       19.42042382300875       21.09590568862671
C           20.32610268201072       18.35233386966795       20.17586382500429
C           18.84161579573771       18.13025420392385       20.50705985369855
C           18.42233610463519       17.70384690249486       18.21123190592259
C           19.92233732533680       17.81167366186763       17.94747407846456
C           20.25480474497657       22.88433975986988       23.99955266260976
C           19.96811277690390       21.92310834970097       25.15301701347811
C           18.50668993463233       21.48141524968773       25.10254814027774
C           15.24175858867875       16.24550696576227       21.53220752727861
C           14.59421007496296       15.38458258521128       20.61940873679793
C           15.14008282965828       15.16663945005623       19.36001569779828
C           16.32076410174798       15.79605450703260       19.03831513591140
C           16.97860026865542       16.67409021182866       19.92515421826646
C           16.41694482749560       16.90425957950219       21.17125995996209
F           21.92744070985716       19.23437341535100       15.74781770976284
H           10.02439347312010       17.72753175500132       23.60914832192561
H            9.09976419373641       17.71865610063168       22.10261446101072
H            8.70164000997168       16.56310455105797       23.39491536603114
H           11.31136279052691       16.59176410673867       21.79540557135083
H           10.43793215084084       16.17491858231278       19.67721968235877
H            9.17825166933376       14.91510734699783       19.53888955501066
H            8.77383533234655       16.50221859404538       20.23273297649578
H            9.84027702187292       13.64945526737707       25.97984925473410
H           12.23816639562807       12.98206518182671       26.28147315109001
H           13.89585568378953       13.79945514853229       24.60602546797407
H           11.66900708546519       13.86609779204157       21.12157668139767
H           12.59839159459727       13.94158074644014       19.61462286509871
H           13.32773823906547       12.28668683090724       22.08592637103730
H           12.68685004616724       11.65291737682914       20.56756792661916
H           14.29928052559175       12.38171367593848       20.61255544274009
H           14.50893408543785       16.29415320297592       24.86402851782782
H           15.97069950372239       16.90272527156718       24.07660905988756
H           14.36148252290239       18.25363187877968       26.36904519679304
H           15.90534633327066       18.75037576134839       25.67595437515638
H           14.55060240823869       19.88231743753893       25.71266820120379
H           12.45381379726466       19.33297299616381       24.39327289298189
H           12.50173864186522       18.08782159726334       23.14103854998935
H           12.42185541983803       17.62435784136184       24.84111516836570
H           14.34238993808864       20.20868324658761       23.13462806638210
H           14.75230436922202       18.79136179632087       22.12430395531916
H           18.63423238663771       19.95100189129435       23.53999185171846
H           18.22240397502460       21.72228280981877       21.78918986670683
H           19.38728596155099       20.87018180185580       20.57694594888358
H           21.83700320451997       20.70675266701302       19.16999178612248
H           22.90619423202603       22.93424514654070       18.41458078077793
H           20.57897004440467       24.38486706369728       17.08945986734126
H           23.56930423468152       24.48290537552066       16.44355811217076
H           22.34837098207795       23.80086587822707       15.37581404864956
H           22.33616068453096       25.52569995209524       15.73608681610822
H           21.29513363090434       25.24752968163650       19.29350878443348
H           22.96412790558933       25.34508381029422       18.72841683502234
H           21.72258567112209       26.37375778405442       18.00590574142865
H           25.10007860727778       19.51354081508498       16.55393923578398
H           23.84336442913246       18.48956165873176       17.25790707004584
H           23.53712814334125       17.28014073802838       15.14747982596243
H           25.27328200649502       17.26213018274363       15.55799103318611
H           27.76386747225666       17.87622107973534       10.05300690377737
H           27.46849015872257       17.36003009003785        8.38834003186458
H           28.75555707034707       18.53299014433808        8.72822168077615
H           27.68078338065239       20.30068337976753        7.24147136642550
H           26.67191588319070       18.90994602611391        6.81664551148962
H           25.90283589038058       20.40686209699889        7.33148189401405
H           25.46260188167077       21.81259816331393       10.64628441908493
H           25.84804478499922       21.97608063997372        8.93434191002240
H           24.69681235144596       20.73516762760303        9.47079500964926
H           28.91499301387096       20.35237726431239       10.27204393667458
H           28.31426797279613       21.54855369812144        9.11027814581257
H           28.01654688594693       21.76024754969502       10.83859942051884
H           24.04533165983794       19.80255546227382       12.53878114734596
H           22.81154982820852       18.82426127076427       13.37159131516402
H           22.66666326889862       21.16632029077250       14.13476287969650
H           24.37544360522350       21.14268741289052       14.61606910526279
H           19.83621239045994       21.64191534962549       17.04828613103595
H           20.44278051407183       22.53164850300369       15.64679792912256
H           20.59676576880023       20.77325297846995       15.71862873684699
H           22.01936603935256       19.40546749161471       21.01482296103143
H           20.67072397405281       19.17793865084670       22.12575986010068
H           20.85010839793019       17.39613167428209       20.34789799945631
H           18.31085524276341       19.09517555397099       20.50880784835802
H           18.80196977416097       17.69710365459333       21.50572968094929
H           17.98288578467757       17.02258627876309       17.48837007183444
H           17.96623816762736       18.69972361021811       18.08429985909296
H           20.11655652618816       18.18397107444482       16.94293933447030
H           20.38702944054904       16.82415578512050       18.07235030841090
H           21.30772166435502       23.15967267855859       23.94920001554185
H           19.63499018807175       23.77850788866898       24.07196504187608
H           20.17509874534415       22.41310785395671       26.10172638304238
H           20.62684031480996       21.05667188073605       25.05901700387594
H           17.85495436918198       22.33742682764264       25.28482618031891
H           18.31155838356794       20.72388743746373       25.86251060607077
H           14.67338517431272       14.50543294594232       18.64626533702934
H           16.75941212531006       15.58664987279257       18.07587409000098
H           16.85863744881559       17.57691146205891       21.88591576527359
