151
 energy: -221.320001336406 gnorm: 0.004652750760 xtb: 6.7.1 (edcfbbe)
C            9.80460832070694       17.19693554954583       21.62468452668753
N           10.17706235130098       15.01453903147748       23.37339913649788
O           10.41988520752911       15.12446975267921       20.44979213289511
C           10.86533134688207       16.12893096938826       21.35866537567616
N           14.00273708409217       14.92491693737266       21.00825768936527
O           16.26898684937681       19.78947133841065       23.19584474765354
C           10.20166142233208       15.56868755350163       19.12692444475885
N           18.76874264958245       21.98382130059265       22.47451840929060
O           27.46443694794064       17.99392957420262       13.40353821691468
C           11.21418526062318       15.39116669925614       22.63846324276106
N           20.02201885011761       22.43616469423871       22.90213237888926
O           24.85876256012281       21.56070816887245       17.47556536891203
C           10.38320902396573       14.34513299734461       24.49248202624367
N           21.71488249316711       21.24957796281604       20.02735263918019
O           21.06369676598472       23.39331057204393       19.96047816318178
C           11.64759984998098       14.01598852049974       24.95633533774098
N           22.62143292478821       21.31339303487023       17.46917571561952
O           21.53797916222282       18.43460825902854       19.75534929229509
C           12.73478706130237       14.40823740987248       24.19893839770678
N           25.36175090528658       18.13981917368498       14.24421415192862
O           22.25253299527505       22.47887499231795       22.58270693976501
C           12.53631296215516       15.10676523132144       23.00748761379641
N           25.43939056885233       20.86125954662398        9.40467257854360
O           15.95321093561888       21.90326862430210       22.51144873488817
C           13.72113151636676       15.49268163062884       22.23159014495558
N           19.04178263667924       17.09936718432134       20.16683776535967
C           13.29583143567397       13.82143929273796       20.41009878784698
C           13.92251573529846       12.47695100474740       20.78413915213454
C           14.73588161945584       16.34594205661227       22.60772265050111
C           14.86000728547972       17.12861542664386       23.87708788263913
C           14.25227082028846       18.54859843298172       23.85348861640469
C           14.42701299829426       19.18579817255473       25.23411719205724
C           12.76731590148208       18.48871481957991       23.50100951385320
C           14.94231289265731       19.41503009313785       22.78902538723299
C           16.63665697235047       21.03935867099722       23.02101876111143
C           18.03593735981505       21.31758824015132       23.54755556939808
C           21.14605983741871       22.05679732307232       22.27092041804387
C           20.94257638435978       20.96514193963919       21.21658637862107
C           21.67960717769502       22.45820384166763       19.45805439164344
C           22.49113213536824       22.58939425473285       18.16642018034231
C           22.03300933134766       23.72604263003168       17.21573400150690
C           22.60859819924290       25.05379460191783       17.70798799424830
C           20.51978785428962       23.85752577782288       17.04651184306392
C           23.86340079114553       20.91089144848569       17.15736642168367
C           24.07450435405957       19.60934863563721       16.35324762074864
C           25.53780504498919       19.17050444929442       16.44800119654449
C           25.77976262378851       17.91403877312644       15.60945161786330
C           26.26610756996736       18.23591335363454       13.25199777359417
C           25.73697242143330       18.63446089536128       11.97180501644345
C           25.41091369169832       19.02889224940370       10.88202422322279
C           24.93943949437102       19.48979826727752        9.57753825676237
C           25.00080384622350       21.78113093790058       10.43449838062913
C           25.24202039705693       21.43792805633974        8.09212479028322
C           25.55972766116103       18.55226347974777        8.52950912336894
C           23.40184631767494       19.36093258955091        9.54327615392490
C           23.96817750513301       18.48778125659267       14.11486886856429
C           23.66866567853038       19.77735908094093       14.88581119181669
C           21.38553936753401       20.68633695572987       17.03973929923993
C           21.36778226546165       19.63332023667320       21.83743709870390
C           20.94143779584423       18.39867954773366       21.03816655224809
C           19.41452796947888       18.26652423650426       20.94684371196518
C           19.68218989318954       17.14400548150565       18.86383206107452
C           21.19438304850435       17.26338955191931       19.04659738025838
C           20.02108190216937       23.34598085823205       24.03268637817334
C           19.33636821460781       22.65873848604573       25.21582956546603
C           17.93780503118571       22.19495892934449       24.80907865767427
C           15.71128361626298       16.29044839193028       21.56652080514440
C           15.23022991240757       15.37679328961934       20.60427296621802
C           15.99971671389352       15.07211909109968       19.49081832754690
C           17.23272142810998       15.66951589427180       19.35862054184663
C           17.74434234058116       16.59011492416956       20.30062119147629
C           16.95268478974358       16.90280675461600       21.39962703033394
F           23.30647932991806       18.58048777111520       16.91249098759391
H            9.59621773243506       17.76328972394711       20.72092133701290
H            8.89687166263835       16.71353184459097       21.97172887828275
H           10.15940905930794       17.87879243246546       22.39066390824582
H           11.77405143151266       16.59800111531131       20.94364084598933
H           10.05925421237161       14.66757364920840       18.53443931401874
H            9.30910995896617       16.19676694764992       19.05144327393209
H           11.07061770019719       16.12516467061089       18.75443290602864
H            9.49200803607731       14.06391262221618       25.03692813391893
H           11.77033985387784       13.46514807251956       25.87503892818208
H           13.74111482429847       14.16495688783827       24.50844198470933
H           12.25810516946087       13.84949443382700       20.74690402602406
H           13.30554671839806       13.95187570973590       19.32453506670193
H           13.24467843754307       11.66873433122503       20.51976393590506
H           14.86751404380251       12.32841969214271       20.26727896032655
H           14.10554232677673       12.43809168003317       21.85637339305005
H           14.37693482136839       16.57842220994715       24.68736242063648
H           15.92114442410831       17.22250834927017       24.11474205276920
H           13.86332058973383       18.62776250564289       25.97702840546730
H           15.47470597201733       19.18824482819796       25.52477138008064
H           14.06653785965620       20.21242297658049       25.22775640643246
H           12.31659817546765       19.47495794596842       23.57980021568006
H           12.63699146327526       18.12839884074805       22.48489948078197
H           12.24711007342433       17.81419794254656       24.17600875175392
H           14.37294574741403       20.33203705403451       22.61119655217194
H           15.03108397756700       18.86085045560162       21.85160320042088
H           18.54092506054842       20.37392763916209       23.77290778700352
H           18.21526901462801       22.77102981331679       22.13111737027032
H           19.87762030041771       20.96137821113596       20.96360812345394
H           22.21259779819743       20.47064583270268       19.61901843653893
H           23.50794982147283       22.84778988339891       18.49473601004677
H           22.48112907863609       23.50172774926799       16.23963973505543
H           23.69547469563332       25.01851777517268       17.72746487861868
H           22.30052196102578       25.86358273005666       17.05206971462070
H           22.24747045089332       25.26105053751354       18.71219409129737
H           20.07505299740733       22.97433990196213       16.60089122232912
H           20.05247745869999       24.04177604157889       18.00992217908347
H           20.30863568256520       24.70503791229496       16.39880411682491
H           26.16556319089588       19.99077568020918       16.10080676033249
H           25.78627769242928       18.97506660151980       17.49140166561159
H           25.20810855350731       17.07721569613442       16.02197451375723
H           26.84087959816511       17.66128289726773       15.60372317113293
H           25.12329013980181       21.32034008686815       11.41262769051519
H           25.63173690979868       22.66911709238225       10.39159495720085
H           23.95394487826081       22.09869123431656       10.31379555668386
H           25.78699429560920       22.38139440098293        8.05991413858528
H           25.65203363856000       20.78613412861695        7.32600283812427
H           24.18593925201682       21.64779045384419        7.86207409189918
H           25.06801458310488       18.66719899178710        7.56791182291527
H           26.62027441928635       18.76475426076110        8.42752810642368
H           25.44270819878559       17.52119774532285        8.85455889207474
H           22.94860862080607       19.90692139123608       10.36687608404084
H           23.01905335899113       19.75200916383176        8.60427619896895
H           23.12254906682485       18.31411347515467        9.62409449436531
H           23.72007501786267       18.60967545037841       13.06088702730096
H           23.37114630581480       17.67184201277381       14.53461440742442
H           22.60821864208175       20.00167331827632       14.80215794959216
H           24.24320476639801       20.60693813402819       14.47163591319025
H           20.60010362336375       20.98157502457381       17.72984060025789
H           21.11292404786300       21.01815895168078       16.03673200865180
H           21.46299233510704       19.60531683694214       17.05989054886736
H           22.45392033679007       19.63718937938075       21.93892434688091
H           20.93426324962217       19.55832596539333       22.83461344469778
H           21.31862906716820       17.50483203436776       21.56560937001776
H           18.98212101157259       19.17612859096583       20.50310703507117
H           19.05032612073680       18.16464606683768       21.96568199727758
H           19.49185353200318       16.22990350635018       18.30885276938315
H           19.31797065105243       18.00378338752848       18.27818532601586
H           21.69850136256313       17.32490406751314       18.08404873974300
H           21.56374880142810       16.38444009577805       19.59375781554446
H           21.05898208613919       23.59547881898238       24.25197645149365
H           19.48229178121991       24.25900219390223       23.75552456747479
H           19.27162085750381       23.35460676949531       26.05050651573993
H           19.93397323419887       21.80025534008146       25.52555356120544
H           17.30913340792682       23.05903747060495       24.58098656008863
H           17.47059858152779       21.63070541377987       25.61526526144830
H           15.65801434575603       14.37520959695226       18.74087082578465
H           17.81610497021299       15.39770753535913       18.49529399972700
H           17.26720026650403       17.60401362640773       22.15334046819524
