151
 energy: -221.326988404262 gnorm: 0.009140022319 xtb: 6.7.1 (edcfbbe)
C           10.79773570688525       15.11100402887065       24.06930094933556
N           12.21359199272696       12.87115670223294       23.08803504793499
O           10.40226491533209       14.71512292412654       21.67522528149667
C           11.37398096752696       15.08185735527230       22.65418517344269
N           13.39751518280278       16.11027940812131       20.21098114998420
O           17.00948917301096       18.93250723556823       23.80331031497406
C            9.38305426464660       15.67005581553294       21.47074554272867
N           19.09361684509844       21.63758149715119       23.30095606068037
O           27.07301951673758       18.01592152764364       15.25349767014883
C           12.48224269845615       14.05094603615716       22.54851048660986
N           20.45413621631335       21.96274819943869       23.31529931242093
O           23.93668239759700       22.68688228953947       17.99678205835895
C           13.11812095325152       11.91014171528085       23.03591180031369
N           21.03437254475548       22.71831576855817       19.83343775185169
O           19.33625040229882       23.82541318170846       18.83441917372189
C           14.36044763194636       12.07324569023610       22.44374110463864
N           21.88406984121367       22.74603468498044       17.08330259470112
O           19.10327137892461       20.69460834506804       18.33529835169114
C           14.65094032713137       13.30102154420861       21.88091990107952
N           24.93992389991544       18.77664515974177       15.35842580036451
O           22.31155428166289       22.45047745064612       22.14228674791691
C           13.70392061652301       14.32594109162147       21.91748485932871
N           26.98419372532303       17.13675872248385       10.16491954048427
O           16.55268018050442       21.04034634926897       24.41990755267299
C           14.05520515163451       15.61665394918917       21.31468497009809
N           16.39627192055948       20.67538990309691       19.26392767686400
C           12.46840085790349       15.38046463268392       19.38513017337718
C           13.19596557058696       14.53588283351718       18.34096571764976
C           15.07983990349817       16.46417145555981       21.67990159786439
C           16.01164681909955       16.29981054637141       22.83763471740825
C           15.57267387812089       17.00858184842389       24.14037241328750
C           16.51029239058871       16.58477787186822       25.27415178022860
C           14.13563691077589       16.63785449704239       24.49939057219479
C           15.63992155303342       18.53071792793843       23.96889741014451
C           17.33201980152299       20.17453031307448       24.08698200798926
C           18.83572459569077       20.38502764153340       24.00488655627602
C           21.11651304524556       22.17920822883967       22.17096498483788
C           20.28638783170946       22.07849418800429       20.88858334538275
C           20.51778623392486       23.51671410427491       18.89441138089690
C           21.57231186232547       23.94805177730705       17.85825588496418
C           21.14031971797413       25.13959316253513       16.99579690914358
C           22.18247273879501       25.41848164723897       15.91498145530854
C           20.97606888932009       26.36676480155913       17.89139461324595
C           23.06704431561382       22.16202844896662       17.29747608307245
C           23.35196864769384       20.76551698509078       16.70457600988132
C           24.64587133934140       20.21890451327626       17.31453144756158
C           24.92304060309776       18.81025166555216       16.80301585851082
C           26.02054244745255       18.32952116169481       14.69538612270797
C           25.85619750676910       18.16357976048893       13.27466115157245
C           25.83418952137754       17.83182207939170       12.11776162328341
C           25.66539272959722       17.46951668126651       10.71313096035431
C           27.97486053184154       18.18108264593728       10.32216402801266
C           26.97460819755884       16.62699546958990        8.80984478621638
C           24.76291683657463       16.22345303569751       10.71189503530281
C           24.94301618478803       18.63477086645432       10.00426139794081
C           23.73623436714535       19.26938709203789       14.73408975324237
C           23.45334118279033       20.71022018945714       15.17891203539317
C           20.81252208120699       22.25945292871934       16.23966965762517
C           20.01737832466181       20.59749684960627       20.56052408173063
C           18.80168851438556       20.32175936350364       19.67352350776062
C           17.50690745139973       21.02241955894920       20.12748300186231
C           16.73601871435741       21.06729388056018       17.90656874634530
C           18.03091467610256       20.37124027373573       17.47139985631838
C           21.10659163860274       22.03221734752934       24.61388764333484
C           20.90439338147682       20.71679308811700       25.36183657425262
C           19.41461418415533       20.38620327978958       25.43033166567253
C           15.07678364626013       17.53343151596580       20.73212092683330
C           14.01955817542492       17.27069284525864       19.83287544876532
C           13.74476919333030       18.14956801361414       18.79263470287393
C           14.54549798664044       19.25543728508518       18.64366308819818
C           15.65547861251277       19.51044355041385       19.48083024094447
C           15.90438596844317       18.64308435524172       20.53669210031767
F           22.30623312198163       19.92082665096158       17.12145156465322
H           10.06507624132239       15.90677255023152       24.16747975570868
H           10.33096742864109       14.15335863248061       24.27883494193875
H           11.59663673262931       15.28245653997916       24.78320357238220
H           11.77403247623073       16.07588753390321       22.39255821814081
H            9.80823044610113       16.66752868889605       21.32127850565748
H            8.85864973913540       15.35670017403487       20.57264682570750
H            8.68081855829200       15.69808226836290       22.30689169706880
H           12.83000902042496       10.97506701967298       23.49680267733166
H           15.07339438728295       11.26486493044602       22.42243510037514
H           15.59981277612352       13.47546117696750       21.39424501672570
H           11.85353994419372       14.73712934069061       20.01719529321668
H           11.81564278651225       16.10387810836257       18.89125550191862
H           13.81454495828305       13.78597153815824       18.82849213061303
H           12.47318529854518       14.03078244969650       17.70724091730958
H           13.83236649333447       15.16450091502231       17.72189316420590
H           16.11585633833393       15.23765704240780       23.06022553776733
H           16.99260587583554       16.68727455565423       22.55817524944518
H           16.43325532132145       15.51338116046941       25.43790780478578
H           17.54151514621352       16.82678440026773       25.02890310325491
H           16.24201746225680       17.09641899112493       26.19649775832875
H           13.85992175423880       17.06511060105621       25.45985511658621
H           13.44595786962441       17.00827343287710       23.74644117609398
H           14.03805953265225       15.55666819465884       24.55714657634958
H           15.23599361414495       19.04511917588603       24.84639039972095
H           15.07487287516880       18.85012523910417       23.08902940590680
H           19.27690375904925       19.56296973718517       23.43316608562264
H           18.54681493402794       22.37889350073379       23.74261715875617
H           19.35091206283576       22.62232751375618       21.02559249605525
H           22.03450861122730       22.56021260644066       19.86629164656716
H           22.49197745254566       24.21737726372009       18.38989571238637
H           20.17338312275322       24.91806671100537       16.53622474793600
H           21.90098388181308       26.29855199678469       15.34596872118464
H           23.15286337081891       25.59725638723460       16.37175870212000
H           22.28281178713020       24.58374563403503       15.23003126498041
H           20.22521138379927       26.18275856459956       18.65534498739757
H           21.91877483275223       26.60982918939745       18.37809308315957
H           20.66200117845447       27.22152965920010       17.29914748144471
H           25.45784254063662       20.89691906555392       17.05202799858839
H           24.55926438542791       20.20926198075771       18.40140660661267
H           24.13840237911871       18.13265548217093       17.15897012120054
H           25.89268326555679       18.45626196151567       17.15839581598489
H           27.92335187555365       18.58612617052824       11.32914983111300
H           28.95924041004189       17.74175689048830       10.18238941112040
H           27.86160143237550       19.00300208057882        9.60265437371343
H           28.00671903259013       16.40821809298081        8.52648707742397
H           26.40631989645291       15.69949476911129        8.76541603096083
H           26.56525870306348       17.34190353220419        8.07863058175426
H           23.89567829041881       16.40201025906164       11.34154543049466
H           24.41905454481508       15.99554191256434        9.70648800548140
H           25.31192124111703       15.37393785292229       11.10643163636702
H           25.58383075134148       19.51220173329357        9.96028267127331
H           24.66613169138914       18.34370809248771        8.99571033253698
H           24.04106627399980       18.89182860407661       10.54985757865991
H           23.85100573750698       19.22342437495432       13.65056053976187
H           22.89533899152446       18.63266395815840       15.03224380703098
H           22.53309034375770       21.04778624473588       14.70768879279815
H           24.26906884445027       21.36816577425290       14.87662729453222
H           19.87006530329858       22.57488708371726       16.67989543928410
H           20.89347935846800       22.68297185792989       15.23781950444847
H           20.80492298359368       21.17726002142501       16.19280233914305
H           20.89844379258528       20.20011026366970       20.05014287887566
H           19.87914795731755       20.04793440986661       21.48784661414205
H           18.62397312591262       19.23026680057556       19.68287082327836
H           17.64401828118449       22.10334696349895       20.02415400849956
H           17.28209759862596       20.79726657130571       21.16877141118719
H           15.93972087900326       20.82112755445806       17.21091946042518
H           16.89645558569399       22.15037548701319       17.90271639194904
H           18.33191939446884       20.69336982000738       16.47474469170969
H           17.87567260172286       19.28048517287051       17.47433757078034
H           22.16201184508963       22.23127465351660       24.43318354520017
H           20.67346685029169       22.86229844755729       25.17915409998604
H           21.31844845121626       20.80042394927004       26.36516659700138
H           21.43164127662728       19.92024947200921       24.83558623789223
H           18.88780252217090       21.12852257309284       26.02662298685213
H           19.26356651248549       19.41148433175036       25.88339331335839
H           12.92016958125841       17.98509280004759       18.11558311517536
H           14.30145833058223       19.95691692317231       17.86273953482236
H           16.73519926773096       18.79721615090650       21.20617146982344
