151
 energy: -221.322796528712 gnorm: 0.004238656206 xtb: 6.7.1 (edcfbbe)
C            9.74452190004944       17.48665721117272       21.73696957847065
N           10.04663445222530       15.50661860961429       23.72766976516195
O           10.14161431505747       15.23674590114010       20.80784912593277
C           10.70500299003341       16.31090835822623       21.56104969868653
N           13.76876972819287       14.89197715459089       21.22175244893242
O           16.53353010449560       19.69224347625340       23.16281357075970
C            9.77042827694351       15.56044783135290       19.48416673051373
N           18.96891719247005       21.71622064081721       22.88792828818960
O           27.41182188772951       18.60245177226225       13.80157677625000
C           11.06551442430098       15.70395946871097       22.90287097735423
N           20.32501050280459       21.98429169982419       23.09627372276643
O           24.10085313848256       21.87217121277495       17.55699736138180
C           10.26122393686442       14.95159914866361       24.90645750240359
N           21.16635996592392       21.12855593222015       19.80939589081282
O           20.67816573081128       23.26699575941823       20.27362109178531
C           11.51586872519806       14.55405601501855       25.33937288723879
N           21.88329116356295       21.63471077532463       17.26337218364676
O           21.10887323901353       18.36645056372506       19.18561991044065
C           12.58543202585556       14.76401034800557       24.48960676626741
N           25.18794638572838       18.83938081940281       14.18813187526813
O           22.44037906244125       21.88613441706213       22.32978963504112
C           12.37850776421761       15.35037163737029       23.24044634419883
N           26.66155220757350       18.93158503222435        8.70333379794660
O           16.20089343931089       21.80938907097407       23.82949947657503
C           13.54907015304187       15.58882653762056       22.38770691489691
N           18.77689561174625       16.88714982666135       19.90473691253981
C           13.00562816282776       13.75576695936383       20.77008321651277
C           13.42259876608619       12.47928633946561       21.49996914464170
C           14.59905415638985       16.44440612846780       22.64008215708399
C           14.79404783753734       17.30510897746172       23.84756738192591
C           14.30968572397432       18.76707152999947       23.73852398778033
C           14.40280447239767       19.41328115886531       25.12377818822562
C           12.86631675269360       18.82138623280905       23.24278501570302
C           15.16809522611362       19.55415103640436       22.73713483674287
C           16.91572658308047       20.84493526405606       23.66654451417541
C           18.41165696998384       20.88084178766909       23.95842885743685
C           21.25518027472506       21.59829230843621       22.20924837123702
C           20.75174459708044       20.65523556577163       21.11103594511378
C           21.11236103502635       22.42439632110821       19.49204930952289
C           21.67273647963890       22.79939389045027       18.11857788306002
C           20.92206855551601       23.95621167434436       17.41184425131438
C           21.44567294019517       25.28609843404024       17.95660877426770
C           19.40069432173590       23.91897119340618       17.55558371171414
C           23.15506589661155       21.25174484467727       17.06832554614953
C           23.49603876441073       20.04850800837784       16.16727984448456
C           24.89625269203557       19.53544583268045       16.50719763900772
C           25.28757130337315       18.40216914193994       15.56242805118330
C           26.28301137041126       18.91557326476683       13.41422164134063
C           26.06581209077255       19.34151443008815       12.05605579438990
C           26.07314289176755       19.61106034427306       10.88257954576612
C           25.96062230654343       19.96933347994998        9.47169580127627
C           28.04343152423851       18.73630173514359        9.09498931747969
C           26.55559027634873       19.04970564423659        7.26405198098681
C           24.46138300853760       19.96403039135289        9.12746458972471
C           26.52793835087193       21.39376467803366        9.29927560409501
C           23.87323132461911       19.28862559077160       13.79859878464736
C           23.41683270658771       20.44955675805795       14.69024278209815
C           20.69281471559189       21.03693209746731       16.69132767845333
C           21.35318012028334       19.27723678545894       21.40054702196213
C           20.79285407290632       18.13642189784134       20.54789034288258
C           19.28459696113904       17.94581513868127       20.75767100544611
C           19.12582940296721       17.14633205864688       18.51622485674124
C           20.64062543771423       17.28784683366131       18.39929216368099
C           20.64633891633655       22.66333578673382       24.33796341270923
C           20.18458951288545       21.77682392630319       25.49636915085862
C           18.69475627798340       21.46001196531176       25.35113851280062
C           15.52812568821688       16.26116759684913       21.57317045972149
C           14.99147467049757       15.26303962461580       20.72995846106842
C           15.71956773800867       14.80739366340391       19.63740272418463
C           16.95313599996862       15.36456162763824       19.39263133406075
C           17.49285863828513       16.39597252093212       20.19045282608904
C           16.76563589073691       16.83822505408057       21.28607441474848
F           22.61698696841757       18.98028873043973       16.38614567698664
H            9.56473646664745       17.98220350746678       20.78715230972835
H            8.80679763814809       17.12215863901559       22.14537820082020
H           10.17626920362801       18.20316734463285       22.42820910418707
H           11.62160803163660       16.65276829387028       21.05008280208921
H            8.86114105145771       16.16586133269058       19.45807691789456
H           10.57950552265710       16.09049200931597       18.96970709110245
H            9.58417139321176       14.60884535764381       18.99079258701915
H            9.38186507510181       14.82401211601843       25.52325390040317
H           11.64882353404681       14.09475723681541       26.30525038228028
H           13.58548412647434       14.46718154675161       24.77209493987931
H           11.94282997073944       13.94745886709456       20.93680560612874
H           13.17335478920574       13.64513095998173       19.69659661362078
H           13.18423754456830       12.55781794919160       22.55866301706029
H           12.89217878774211       11.62631632075681       21.08806116705683
H           14.49256490988586       12.31691286123632       21.39432894680493
H           14.26486739038229       16.85243951885817       24.68861671570356
H           15.86000001252044       17.32029073260594       24.08638408556601
H           13.68547730327015       18.95392787554526       25.79871642166290
H           15.39858572789054       19.28493300634509       25.54387194043723
H           14.19179349804104       20.47898649117138       25.06641859844635
H           12.50141301185580       19.84576916534483       23.24566455014359
H           12.79915642953647       18.43065785338052       22.23118698708559
H           12.22915243688609       18.22239133681117       23.88801662554443
H           14.75187973108424       20.55633054870734       22.59816886514545
H           15.20773096848808       19.02906904575658       21.78171922747144
H           18.83524090073488       19.87793355774749       23.84871743940453
H           18.46062926647868       22.60208882550427       22.85731286674718
H           19.65884355498978       20.64292343581379       21.16537671435452
H           21.53451968930419       20.42991536601260       19.17844524164346
H           22.68380761465903       23.16971609575585       18.34395288339851
H           21.18342949593175       23.89726724105369       16.34924422882163
H           22.51282794716960       25.38747929473377       17.77305244674096
H           20.93270831725624       26.11762998128998       17.48278630310998
H           21.27299924212679       25.33414723890955       19.02888882168959
H           18.95798985187403       23.04922275565771       17.08083465907598
H           19.12620340789388       23.92508946334606       18.60764464337472
H           18.97864408105691       24.80735113360157       17.09198966955523
H           25.59742863784831       20.36512711532803       16.42482339489471
H           24.90808238824518       19.18347614003571       17.53901866225547
H           24.61917291701853       17.54812636130501       15.71049399108848
H           26.31776078864608       18.09369918648882       15.74403424160583
H           28.38749736766963       17.79044384265523        8.67677715719802
H           28.71253525061952       19.53252729800418        8.73402815097459
H           28.11832436681980       18.67991609475324       10.17973414343768
H           26.97467237226560       18.14459946571582        6.82592205794776
H           25.51388853837146       19.11810298819999        6.96739063727511
H           27.10720290786088       19.91019822121882        6.85593823062553
H           24.28107480363029       20.45983950168478        8.17873884389125
H           24.10286468077329       18.93890652498485        9.07526170254905
H           23.91161719271537       20.49288216705849        9.90018417206825
H           27.56450442593792       21.43723193400403        9.62461662411257
H           26.46742861651508       21.69350032189358        8.25699585449401
H           25.95093104027170       22.09123127000825        9.89887881544698
H           23.89774681670034       19.60219408056640       12.75474531177688
H           23.17268599030846       18.45418058023347       13.90845355298762
H           22.39573998591680       20.72458793308103       14.42991071551006
H           24.06547114761104       21.31440786059720       14.54784991918139
H           20.37282448366669       21.60045054027924       15.81365245283726
H           20.85366111580633       20.00411555138115       16.41286038132863
H           19.90436491079005       21.06496532491726       17.44015217925815
H           22.43111964008568       19.34503208423758       21.24244525841253
H           21.18098482114634       19.03551811078284       22.44951255032565
H           21.29210425208142       17.20229103140205       20.85967076060676
H           18.75699713598977       18.89147072124578       20.56059588729410
H           19.13922203383299       17.66434854862673       21.80009066235618
H           18.79928181335378       16.32649522794780       17.88227528644787
H           18.65271590827033       18.07803953613744       18.16369158133637
H           20.93803680470639       17.50427156383699       17.37444740949093
H           21.12356106642225       16.35861637689705       18.73244567418076
H           21.72270481074529       22.82995862757699       24.35370980883613
H           20.12948334230750       23.62829881977397       24.35893679307472
H           20.36727998568770       22.28385485105983       26.44169262314684
H           20.76229718538199       20.85107162280989       25.48254325235577
H           18.10298770614600       22.37061992407052       25.47060790260572
H           18.38406248975484       20.74718707757458       26.11472711038386
H           15.34842419816027       14.02092598985533       18.99808535789447
H           17.52874451589533       14.97346199628638       18.56918281952618
H           17.12672292130906       17.61584780397898       21.93602380284705
