151
 energy: -221.316771244028 gnorm: 0.003823896665 xtb: 6.7.1 (edcfbbe)
C           10.42371703029280       16.58962257450537       20.96173134788469
N           10.96960022629984       14.19286884246595       22.33899436981300
O           11.28546199606446       14.82214068254157       19.49004852758639
C           11.60211544525867       15.69458700528095       20.57477187523268
N           14.86045425397329       15.03983996386065       20.22578128417443
O           16.13586285631381       19.67615351500534       23.30290623249422
C           11.16970535345138       15.45521471883095       18.23387668886405
N           18.24027987068109       22.34695289339436       22.39796323075851
O           26.02386660561070       17.20928311226303       14.01579906636194
C           11.98500607440638       14.79214648231469       21.73307273791842
N           19.23922850520340       23.16269772773966       22.94075752745397
O           24.89330688063257       22.09457961797279       17.90334549196564
C           11.20196650059815       13.38694771309436       23.35808699296794
N           21.77962847464359       22.27829543644286       20.58235211702516
O           20.89771760547007       24.29337027818237       20.12993021346113
C           12.47501268463404       13.12562189158735       23.84118520237921
N           22.68142993677139       22.49287500774463       17.89049982491532
O           22.03211327553415       19.31875046890676       20.48680218644676
C           13.54042958871240       13.74301599324270       23.21464005478845
N           24.31549975132586       18.49360656872287       14.77556102714625
O           21.42614179333528       23.70955158313297       23.02201405862716
C           13.31455244004959       14.59909340406638       22.13502298371140
N           24.26208434628800       18.20893384788757        9.01544501951660
O           15.71811058412614       21.36405357091837       21.89677759336057
C           14.47697330988837       15.25962306054036       21.53197887056738
N           19.63130762359638       17.83488208048075       20.26923937458467
C           14.35445299339739       14.00611580705762       19.35699038022989
C           15.14378118392946       12.70796234751383       19.52136610289777
C           15.37075023378513       16.10346774325864       22.15578671992305
C           15.36378957419806       16.61514579083376       23.56162018316699
C           14.52173273817537       17.88795235888634       23.80365548295288
C           14.69651053372256       18.32658185035899       25.25935875262591
C           13.04492561887371       17.59830735940276       23.53226198373621
C           14.93597580228389       19.02265211024008       22.85750801982187
C           16.38658535685925       20.85333487476152       22.77019950692842
C           17.56981833490744       21.54958525895274       23.41864592624881
C           20.51977815236216       23.03689569146473       22.54919127731729
C           20.74857444030239       21.91900449436695       21.52843912675357
C           21.75315739602477       23.44165202529462       19.92220343128953
C           22.87945863022524       23.55206836862877       18.88304036665619
C           23.11000470258805       24.95560048262455       18.28536245620673
C           23.54399788549680       25.89556851299104       19.41060852425373
C           21.91383242740636       25.54986051277795       17.54602386801998
C           23.76259706363059       21.78152266154371       17.53699116311543
C           23.58911253843261       20.48287000726915       16.72091345890460
C           24.83886734567814       19.61645680040229       16.89181160061743
C           24.66220624274982       18.28843859707055       16.16387052573418
C           25.00296334885772       17.86618914137944       13.80456182596693
C           24.43602094841685       17.94497030345417       12.48255750191728
C           24.06841992412298       17.76211185064470       11.34951157433826
C           23.44945343508111       17.55057196581177       10.04374941151117
C           24.59156488354500       19.58938340391265        9.30217704232843
C           23.75781571365640       18.07787646932136        7.66460395962671
C           23.46328880920977       16.02617822229391        9.82138594301132
C           21.99100871387824       18.04981061468357       10.13120652937321
C           23.14889663872143       19.31477091540780       14.55386012361188
C           23.31412846346705       20.68257331131129       15.22973859540301
C           21.35586078327211       22.35605460811826       17.31645285141984
C           21.14721946950292       20.66038405995690       22.29979903592196
C           21.03462937910928       19.36512205551142       21.49866705370216
C           19.66038918329009       19.15939481649529       20.85454644904448
C           20.64097921472097       17.72815995912588       19.23811684488194
C           22.00805825792021       18.05528294609603       19.85397095413701
C           18.82498320668442       24.07724610912561       23.98985389535345
C           18.18174962239885       23.27676617358039       25.12364080485557
C           17.03961143083240       22.42212665848674       24.57411926065165
C           16.38027312157790       16.40077462593273       21.19165014283166
C           16.03701585736892       15.70870514705706       20.00809134915244
C           16.85603071960830       15.77861884869636       18.88906693322427
C           18.01821331310150       16.51569640954185       18.97176957756844
C           18.40085812136815       17.18046105248870       20.15244469809659
C           17.56470738904201       17.12770580224461       21.25907481336521
F           22.51209598543779       19.76816494645027       17.27099097001125
H           10.67188978679356       17.15724165428500       21.85278536857260
H           10.18699307651138       17.28232362161720       20.15914380082286
H            9.56248240703479       15.96261026703510       21.17058369117249
H           12.46816858687363       16.31426570397100       20.28680051932214
H           10.32346056036659       16.14603952308349       18.20173645121573
H           12.08964897511843       15.99841546896677       17.98644653895468
H           11.00843887244757       14.65488601127391       17.51543183449854
H           10.32542177107337       12.93706699561916       23.80394191491058
H           12.62498568351202       12.46089497011402       24.67636382507326
H           14.55483619016624       13.56395356262114       23.53988504167621
H           13.30122172951973       13.83100999575264       19.58301658790512
H           14.43261858881171       14.36069252682992       18.32585386391792
H           15.03371918790556       12.32710436046220       20.53405411631960
H           14.77490090271633       11.96072711628526       18.82554376903054
H           16.19985365554739       12.88134366885284       19.32841239063912
H           14.98486066555224       15.84373865796871       24.23377630156770
H           16.39576219455996       16.83149928230427       23.84238428378307
H           14.33087670367125       17.55044390104971       25.92597909940697
H           15.74400457165397       18.51156513534175       25.48007879108651
H           14.13559169620519       19.23824088560591       25.45064754810314
H           12.42728912189873       18.43822689180473       23.84229305040414
H           12.88758794850005       17.42218727998939       22.47237258551303
H           12.72311112271927       16.71481629932529       24.07894843452191
H           14.14815615667897       19.78186058808187       22.80669367720330
H           15.10387905589758       18.64299659527569       21.84494736188424
H           18.27211743886717       20.80554070488679       23.80489549691698
H           17.54108231249526       22.91700959373261       21.91807457142284
H           19.79876519898406       21.77120695155462       21.00516115410793
H           22.44360477633235       21.55317813874926       20.34810281234408
H           23.81251063898851       23.29388744503489       19.40164136022377
H           23.94555434481479       24.84795894722894       17.58211724651303
H           24.42908221186482       25.51623465561190       19.91566089803754
H           23.77076099766701       26.87944675617038       19.00899265090724
H           22.74483878440038       25.99517424226730       20.14190533461218
H           21.68247097676398       24.99491785315900       16.64349449518554
H           21.04381057928431       25.56507708023590       18.19509814620897
H           22.14707546029977       26.57209606024974       17.25851714902474
H           25.69288168288877       20.16713456152766       16.50006557693532
H           25.01382898217356       19.43584387530237       17.95278713699736
H           23.85986627922020       17.71409719012084       16.64334056532114
H           25.58459153393263       17.70647743971009       16.19636948149655
H           24.97767978378282       19.66994578395033       10.31616410944930
H           25.37105881934065       19.90375975558586        8.60887936438336
H           23.73637555316076       20.27357090717732        9.18886301822473
H           24.54417578804403       18.39898170702299        6.98191273135800
H           23.52461105737361       17.04016942726373        7.44774391942839
H           22.86806143471494       18.69663733799206        7.47358509991657
H           22.78535780171729       15.74328377059435        9.02209550033238
H           24.47053475505763       15.70406920340331        9.57453455668919
H           23.14914350876385       15.52232005387167       10.73192024674649
H           21.96150611234613       19.12082897937976       10.31622810575112
H           21.46700391436430       17.83315866770846        9.20435039286614
H           21.48317781351805       17.54213090757591       10.94643250239746
H           23.00151636019975       19.44003246701468       13.48085577444512
H           22.27244716052979       18.81180122175331       14.97877648912299
H           22.40649662727655       21.26244766922779       15.07617732438900
H           24.15698266850558       21.22229656322130       14.79927530122659
H           21.28923451425509       22.90655227992879       16.37680490294709
H           21.09933199263165       21.31746405373829       17.14467383225825
H           20.63155603350237       22.77834338799666       18.00775703404139
H           22.17470136195615       20.77918049698314       22.64679327781148
H           20.50289379591231       20.56619121332754       23.17283343153264
H           21.21212815954037       18.52251691844896       22.18832493700340
H           19.51413538803361       19.91611888809568       20.06778171280412
H           18.87514747765841       19.27360433752349       21.59692605468188
H           20.67574307014192       16.70690837345909       18.86026423088352
H           20.45116266712354       18.42374079145956       18.40471989131777
H           22.77362297061961       18.08932490280108       19.08006638293252
H           22.26471917932250       17.27957307345570       20.58950910417316
H           19.71377643166117       24.61101842240775       24.32606741010813
H           18.11030465655963       24.79324153620839       23.57090367433514
H           17.80515419155920       23.96048236243148       25.88256233759290
H           18.93649389926179       22.63406615682239       25.57939133773433
H           16.24525864066830       23.06668447754822       24.18937200046924
H           16.62386705258745       21.78584949287985       25.35445683653552
H           16.60303963449166       15.27575176147938       17.96883269572438
H           18.64723684854624       16.58048033564121       18.09838049421612
H           17.83418732211778       17.61732674167245       22.18151616172907
