151
 energy: -221.316881646982 gnorm: 0.009452521482 xtb: 6.7.1 (edcfbbe)
C           10.19862546957683       16.32454136062464       20.61497918397362
N           10.42262150606318       14.53686482832805       22.78284045421902
O           11.17229909471240       14.16355509527993       19.96609887386307
C           11.37312424053822       15.35191552877077       20.73169181154038
N           14.58888886693581       14.63480263482186       21.08240658630336
O           15.75256929800505       19.98323390528919       22.89766519328569
C           11.27499794836255       14.33095993624968       18.56797625577816
N           18.30733741609968       22.23051915505797       21.94975387881766
O           26.24472755248367       17.25193986419573       13.08082167417263
C           11.54221386796499       14.89029298982709       22.16772024504442
N           19.26840292918778       23.05008207420473       22.55317822405347
O           25.35120010053657       21.12814926931303       18.02642911448458
C           10.47266363491737       14.10823575269566       24.03045646798694
N           22.09928674318099       21.76317699762005       20.79057258534474
O           21.41901953417412       23.71888228135638       19.91755630689611
C           11.65400627609416       13.99916118192069       24.74753792003610
N           23.18721085968556       21.72522573450314       17.99262503448707
O           21.75378890053435       19.01009210679124       20.62985842082169
C           12.82619692150848       14.36884336446061       24.11661452342617
N           24.57403212876355       18.33488013235450       14.16814140335102
O           21.44754305914620       23.49204559946616       22.92183168240220
C           12.79262580366215       14.83053488443439       22.79954682315882
N           24.66577212852568       19.55227132809497        8.57672660691644
O           15.83501218991657       21.32071047506260       21.10639504354598
C           14.05001423213309       15.26509720077608       22.18296627916791
N           19.34354259269021       17.47797165418668       20.69862008479607
C           14.18218437414395       13.34960927668009       20.57040053682903
C           14.84243140283427       12.21090868153603       21.34798163386390
C           14.87098439989615       16.29301746575903       22.59582212240858
C           14.69522368873001       17.21422355408909       23.76137228308820
C           13.89571313375796       18.50514049435766       23.47915708224115
C           13.80284502152248       19.31484125644781       24.77521159330592
C           12.49072898132061       18.15811007385928       22.98863286458771
C           14.57234170549738       19.34403212206707       22.38739095041980
C           16.25304644599766       20.97260006177110       22.18918994904833
C           17.36762348778380       21.69268189512386       22.92605308042460
C           20.58120862259666       22.80582706022310       22.39736954544996
C           20.89592803857725       21.55997464075255       21.56652690142715
C           22.23423622826467       22.80538204306642       19.96283006548474
C           23.47585211682780       22.68087715422412       19.06993208065293
C           24.06122158153128       24.01843083875233       18.56988675271360
C           24.44166319823128       24.86052925515987       19.78728550335448
C           23.13759369469000       24.79984504402119       17.64031318546473
C           24.21620820738885       20.97439233454404       17.57810054429860
C           23.98219085415437       19.86457572779734       16.53159881348223
C           25.19918629900977       18.93945644898513       16.46714645343354
C           24.95586691482720       17.81503692515129       15.46224593154132
C           25.23800113368226       17.96256115128474       13.05840594322533
C           24.66612666924101       18.40511099471661       11.81251922155717
C           24.24575895516669       18.61941937696825       10.70481629539474
C           23.65464265117937       18.87010852250391        9.39167144097195
C           25.09481454021174       20.82406405865925        9.12192375059967
C           24.35786195052541       19.67973066629477        7.16862957026792
C           23.33354396844910       17.48267729243360        8.80994455661815
C           22.34300421460503       19.66110495195962        9.58366902596746
C           23.43226649220919       19.21657368695574       14.18049121192382
C           23.68571395516534       20.39506634497216       15.12730396609033
C           21.83466537179672       21.69035863141551       17.47089525303782
C           21.07011389801628       20.35940132535805       22.49897707070273
C           20.91695914242346       19.01893542825506       21.77381084261669
C           19.45440379213888       18.74539195108470       21.39596387779139
C           20.20086473843702       17.48747019321521       19.52763610962979
C           21.64098425884670       17.77676414826096       19.95336462410394
C           18.77242990043520       24.16626903106111       23.34086699216344
C           17.83008582042274       23.64144743378639       24.42334239807906
C           16.72513168081664       22.80346716783555       23.78241397429664
C           15.98953524300104       16.29032829293457       21.70941379505132
C           15.78704095246665       15.23402343643075       20.79598714934575
C           16.73698483467493       14.97753342571653       19.81637040233453
C           17.87142694906810       15.75617321890507       19.77733306970378
C           18.11951661359436       16.80053714650096       20.69714889168745
C           17.14647596098253       17.06560965207148       21.65338377577291
F           22.89734702792738       19.07989204901039       16.96502641593482
H           10.34540639822346       17.16010056709835       21.29778306207304
H           10.11856205238493       16.70914201378666       19.60095526675630
H            9.28340682730993       15.80073329271478       20.88370623177504
H           12.30227603621032       15.83902343952279       20.38781682098536
H           10.48390906440039       14.97522149032840       18.17535665583339
H           12.25204891334472       14.74866909735552       18.29528975170332
H           11.16968823473936       13.33457904553085       18.14598606380503
H            9.51948861669444       13.84716892571114       24.46952308150586
H           11.65381838259346       13.63721496788739       25.76290111248194
H           13.77721633396268       14.29388508342027       24.62265852985446
H           13.09549756422592       13.26118663676227       20.63814501648771
H           14.46939435365131       13.29852886118425       19.51708567430038
H           14.53546108958896       12.24352975486264       22.39419478186385
H           14.54507865613104       11.25504231798559       20.92679797478513
H           15.92875706709543       12.29885363509454       21.29823333611705
H           14.18633045137811       16.68538588107187       24.56835536904114
H           15.68633485956654       17.50138273378575       24.11692677195857
H           13.27834581553677       18.74271739115578       25.53424913460829
H           14.79484957297478       19.55811676034438       25.14650660352136
H           13.25975000583057       20.24006399039255       24.60372314747453
H           11.88516871223595       19.05558934235404       22.89538648503377
H           12.54158196697332       17.67085481575286       22.01951748446218
H           12.00367800634946       17.48360788017536       23.68725144539737
H           13.89625945395585       20.12525881908596       22.02588535177582
H           14.85378175885185       18.71895829078802       21.53553505397051
H           17.89810374734828       20.98672533678279       23.57055193758213
H           17.78272717716311       22.75652390867029       21.24707866487401
H           20.05030698024471       21.40248616631322       20.88838865766240
H           22.73953493057501       20.98129111058027       20.74969785251630
H           24.26865824080900       22.21558119158108       19.67054344123606
H           24.97831425966510       23.76433509484764       18.02370664701298
H           25.15265050981610       24.32663887439475       20.41432787432857
H           24.89514865334483       25.79768021074279       19.46985265706192
H           23.55573854351455       25.08473728017733       20.38299815042977
H           23.01324212997574       24.28533722629157       16.69132605352643
H           22.16713107824492       24.93923762075373       18.11000246442394
H           23.56966690829318       25.77736111528450       17.43781104859790
H           26.06846159289911       19.53352697692535       16.18812598152200
H           25.38549257398419       18.51555543518712       17.45358645463477
H           24.15189074796331       17.16715804703047       15.83064036676090
H           25.86078952687695       17.22037813931576       15.32858166980451
H           25.24694513545572       20.72922890022912       10.19433614570160
H           26.04524711985269       21.09260331548613        8.66111299757657
H           24.37973096112011       21.63691655807040        8.92947228201569
H           25.24773321190120       20.06575583642430        6.66993114738174
H           24.12759542578704       18.70747677489297        6.74147880732876
H           23.52463843435588       20.37267471527918        6.96650159847387
H           22.66625179917018       17.56791578708896        7.95189893814739
H           24.25532513582640       16.98498372186929        8.51349727883460
H           22.83916985219230       16.87859299256426        9.57234864507530
H           22.52908722222288       20.60645113629247       10.09085579749671
H           21.88761709839801       19.85898104716000        8.61508073870561
H           21.64989932755621       19.07458803317159       10.18242244011645
H           23.24863522179857       19.57786098508058       13.16846908051622
H           22.55397956396597       18.66022065481184       14.52704439061481
H           22.81908648528054       21.05144721454062       15.12217514286601
H           24.55525305438191       20.96337391637247       14.79784928489999
H           21.65832069904508       22.54667759336580       16.82004450012301
H           21.63934972467710       20.77134911975324       16.93458072188270
H           21.12681562966780       21.74676698228475       18.29514331508653
H           22.05915595434368       20.42384725458798       22.95385802542677
H           20.32663394121008       20.40738945984707       23.29309704949402
H           21.24179975156600       18.20863784668104       22.44889884117157
H           19.06665487057131       19.56578082404166       20.77167131231145
H           18.88863982812513       18.71888860590273       22.32302341371256
H           20.19737369253147       16.51950828660902       19.03491284649304
H           19.87670761445068       18.25769164444245       18.80919006635991
H           22.28559824005176       17.85163340686901       19.07828361639443
H           21.99489239214388       16.96781069592586       20.60804699704957
H           19.63996528203482       24.66879030188849       23.76866927881021
H           18.24600866436697       24.86019775939610       22.67659593761859
H           17.39796165605749       24.48096900785624       24.96578995573833
H           18.39570521204802       23.02837396469977       25.12591142795956
H           16.10876270861152       23.43208520439500       23.13565925431760
H           16.08664235638851       22.35720786349276       24.54294348201833
H           16.60438776528206       14.18898955166556       19.09203402213596
H           18.58990400802410       15.53290102277435       19.00483535620973
H           17.25100075608505       17.85270797651599       22.37871955812291
