151
 energy: -221.320795551706 gnorm: 0.009720296684 xtb: 6.7.1 (edcfbbe)
C           10.15320210554388       15.94254167486527       23.14776269530960
N           11.34775274621624       13.43720181511659       23.75151880384195
O           10.44934163107259       14.50688467887381       21.16560417898400
C           11.11776989464066       15.25030970742896       22.18363546560440
N           13.92697039373348       15.09680923688249       20.47347490417621
O           16.64426548320278       19.09619853472616       23.64186945742418
C            9.73370869092068       15.28887445183683       20.23191862900806
N           18.86144481169914       21.68576214216839       22.81504817417671
O           26.48831967758345       18.09061293220269       14.64282213330589
C           11.98551262415770       14.24808425031034       22.92032943724322
N           20.13218999014169       22.19916707055702       23.09435262166537
O           24.40437008516814       23.26822543886248       17.50934914243771
C           12.03053100385684       12.52931029001354       24.42644221981269
N           21.37030813632408       22.59368210034095       19.72303072384197
O           20.23826459481959       24.53298253606925       19.92588732485122
C           13.40391409138883       12.37639722099726       24.31218633877927
N           22.17329477230880       23.43286682349511       17.26759793553606
O           19.95032438900964       20.48840044480125       18.40026454982385
C           14.07893374641097       13.21628209197302       23.44532988136696
N           24.59696432974698       19.32931746966315       14.82609225775664
O           22.13636991825488       22.87504124108406       22.32090379100813
C           13.37308091239349       14.17862813835749       22.72309539793664
N           26.05093518404422       16.78733633909496        9.84451888189710
O           16.20653473465721       21.27940289369163       23.40779679061134
C           14.10979770764264       15.08589526033686       21.83840459718387
N           17.78721805214962       18.80867656101902       19.08990133143644
C           13.23262605224555       14.09660241429833       19.70348558767618
C           14.15766606598618       12.93067669057798       19.35008433816150
C           15.06399335239257       16.01159216052258       22.20189533284797
C           15.61668946277108       16.27533872585870       23.56619314456670
C           14.98262276210073       17.44887081634412       24.34474483381479
C           15.59077229343042       17.48457077006277       25.74975801876775
C           13.46910435275178       17.26242927936282       24.43831442682260
C           15.24159929992605       18.78475272639405       23.64019374363546
C           16.98707226405889       20.36034027809877       23.53780048248470
C           18.48659783487734       20.57276122944131       23.67966653156408
C           21.03713847273182       22.37070240750824       22.11821823184817
C           20.61941165687460       21.87820942274457       20.72845786839771
C           21.14145853493289       23.87628098084933       19.41979570148777
C           22.09086156654965       24.42348742767271       18.33516693736858
C           21.68504972275067       25.83171392322722       17.86665308939060
C           22.36638846903646       26.18131148182492       16.54527050673402
C           22.06796586291862       26.84179545575618       18.94647210384511
C           23.34666830327906       22.81658192009816       17.06637965773392
C           23.38444797551760       21.45563252142963       16.34060408708450
C           24.57007780415733       20.65541568504971       16.89087903442685
C           24.59147175569489       19.26363619115691       16.27027216834022
C           25.51642423449147       18.64603519257705       14.12379132496772
C           25.27151963259484       18.51022975185505       12.71175364085881
C           25.18085524624449       18.14234536642564       11.56709310338002
C           24.96840114423085       17.71952336845968       10.18648064244066
C           27.38200313482423       17.31840300540357       10.04851471229192
C           25.94371150164969       16.15866417538812        8.54528675090453
C           23.61568546626311       16.98414148625010       10.16066687415450
C           24.89366144375803       18.97840371459971        9.29660490968337
C           23.52029808808666       20.09430226769624       14.24182343070181
C           23.49533291189569       21.51987776528332       14.81536492118709
C           20.90777819810335       23.05774236056283       16.66898898125536
C           20.89178172868242       20.37637309652269       20.61154480039397
C           20.01408248280172       19.68290368966560       19.56404342813684
C           18.61400098197005       19.38023198830390       20.12756660239101
C           17.71570743412606       19.69711040437883       17.94843587846827
C           19.13404273205104       19.88470439283782       17.41575416376297
C           20.41807009351017       22.55950928915804       24.47354856672965
C           20.19324253997187       21.33412531027404       25.35558356163896
C           18.75772251817945       20.84545885579944       25.17446430405293
C           15.50835616807551       16.62086841972365       20.99217762632358
C           14.79857089117086       16.00781211998882       19.93559334209910
C           15.07256818573557       16.34368820217009       18.61671062102301
C           16.04828104085312       17.28278437169968       18.36734127451310
C           16.75416109266014       17.93064955596817       19.40335299420148
C           16.46412668163375       17.59566805552059       20.71861385950285
F           22.22400309033507       20.74510222440765       16.66538892071893
H            9.46417800038707       15.20662175602376       23.55574954289931
H           10.71513116551189       16.39081978817312       23.96209834840810
H            9.59590209417944       16.72362498183956       22.63713165193820
H           11.76132099868635       16.00692777384057       21.70034505726229
H            9.48021680660360       14.61579991470336       19.41389036163490
H            8.81526692058524       15.69519243298718       20.66414424169438
H           10.35582896841279       16.11076112694269       19.85402709234656
H           11.44458557074907       11.90360001989842       25.08546125016883
H           13.92351444094520       11.62257947020434       24.88326632347153
H           15.14704180343990       13.12610602558312       23.30933453965160
H           12.37416214488786       13.73380593191457       20.27534687517676
H           12.86285637421427       14.57094823607307       18.78828536635157
H           13.62237341827567       12.20916387901770       18.73841963093963
H           15.02576873321211       13.28951097087404       18.79780899570983
H           14.50279820155201       12.43518895962507       20.25748612605238
H           15.49354552024247       15.37969177035441       24.17696878761546
H           16.68465238004437       16.47635779616336       23.46510694302679
H           15.34763277582026       16.57010882590144       26.28485234365332
H           16.67197961721986       17.57837738662262       25.69172707678461
H           15.20007653899620       18.32827444913073       26.31599277627455
H           13.24097025532651       16.29517115570055       24.88131688549151
H           13.02438242176307       18.04061688762098       25.05364058111162
H           13.02088248932835       17.30417430680446       23.44899797441607
H           14.71209647696116       19.59712620793009       24.14681747181870
H           14.89970240330055       18.74272121033109       22.60238798385344
H           19.02627470470899       19.67623978188743       23.35991381670364
H           18.15376824686327       22.41963788549490       22.91006588317355
H           19.55950970276820       22.10433944953748       20.58565603131476
H           22.17594338785985       22.12716754312949       19.33385029010392
H           23.09582509462151       24.48722806799599       18.77373756959557
H           20.59737399451019       25.86571748072871       17.74908581904844
H           23.44204507408108       26.03480002300437       16.63126780549318
H           21.99808940136526       25.56027444177158       15.73392198205339
H           22.17702930957453       27.22266491289400       16.29859597401408
H           21.58879663845197       26.58399764708567       19.88767516809757
H           23.14604989738948       26.85137651766745       19.09412391721636
H           21.74793205865367       27.83937812380019       18.65863720005134
H           25.48666263669792       21.20022468187521       16.66864712897393
H           24.48343372446892       20.56715056747386       17.97370479590110
H           23.69779723867130       18.71347845424546       16.58873924807932
H           25.48133382955780       18.71507793251187       16.58398491426631
H           27.44624926095282       17.78529155266683       11.02984099020458
H           28.09014906402642       16.49006617057728       10.01769290484370
H           27.68099115253508       18.05151459987432        9.28255180885643
H           26.72665367598768       15.40342891769212        8.47937792247489
H           24.98411002680537       15.65793949424530        8.44494409199752
H           26.07736394569591       16.85940597475600        7.70687031289094
H           22.87591383524378       17.55947975529142       10.71008828810598
H           23.26518274035124       16.85788167101826        9.14028196854005
H           23.72159576349588       16.01087023858209       10.63207398174257
H           24.77278294012064       18.69048542488574        8.25587580293287
H           24.04139584296344       19.58339555213643        9.59315913935720
H           25.79638874421065       19.57495305817059        9.40064951125667
H           23.65904471720689       20.12810791578940       13.15982291348351
H           22.56546645787832       19.60277059488277       14.46664654282906
H           22.65101140815487       22.05654266769114       14.38525686457700
H           24.41355395778280       22.05057149001048       14.56615799655219
H           20.26144279937040       23.93189281314495       16.67432241429449
H           21.05189774169882       22.73415203712348       15.64366169040413
H           20.43040744974864       22.26403818935264       17.24241407302571
H           21.94417619692551       20.24434323683119       20.35656637257503
H           20.71870513074768       19.89825778175173       21.57373737969067
H           20.47341376165958       18.71770609259347       19.29134810638178
H           18.17038117731194       20.30000766406507       20.54376517906529
H           18.74545516658765       18.65598634105508       20.93031276697712
H           17.07738206657888       19.28979837898818       17.17000350485346
H           17.31821501023683       20.68039680764426       18.25209141204326
H           19.14989932542522       20.54887800495700       16.55215405417848
H           19.55385993998203       18.90844900562944       17.13805134250163
H           21.45204312274383       22.90278218484665       24.50846524305395
H           19.75518173506014       23.37733861792001       24.77547440704743
H           20.37308977431114       21.59355863820893       26.39751731690523
H           20.89384468036287       20.54951912719838       25.06566419195540
H           18.06311622996624       21.61441332080121       25.52299970859002
H           18.58613077992107       19.93424042776812       25.74675898070361
H           14.55629257193133       15.87220833551358       17.79400969647732
H           16.29204420351629       17.49775766456717       17.34030405130192
H           16.97518790561664       18.06543519234570       21.54109956773236
