151
 energy: -221.322700999105 gnorm: 0.005142639197 xtb: 6.7.1 (edcfbbe)
C            9.69011948516760       17.47648861195196       21.90484359110133
N            9.98624407660050       15.46050798563962       23.85524119201559
O           10.01934236398451       15.23046696110385       20.93930179063305
C           10.62219995180535       16.28409931729101       21.69299027027077
N           13.64883000996877       14.88733785962303       21.29705612769059
O           16.52809394147502       19.60963250224095       23.17181115222190
C            9.57329144216785       15.59455164113936       19.64896908001149
N           19.02731744852088       21.64157940077747       22.79209713584723
O           27.59156012722144       18.44754284930094       13.97801805673499
C           10.99939630324173       15.66442623247128       23.02467040247689
N           20.39296767319817       21.87788076456144       22.97858202485088
O           24.15554243233890       21.86105946107399       17.39534212538572
C           10.21001088770910       14.91266624998117       25.03531164958681
N           21.23311836604060       21.11033903009359       19.64624973503727
O           20.78032825259101       23.25754429128234       20.10746077220865
C           11.47167992754543       14.53010093676801       25.46364808081090
N           21.94268438441188       21.59951684531892       17.08416569359837
O           20.82831900059896       18.46463266474208       18.94670338516650
C           12.53498282011360       14.74245019416578       24.60693176789493
N           25.34985398670400       18.66894176538986       14.24937965170660
O           22.49296695286086       21.76943237847856       22.17519191543617
C           12.31755068637902       15.32045372246013       23.35504833328221
N           26.89874273428128       19.29678130425225        8.80459067962838
O           16.29208210165440       21.75850542818173       23.77621862190065
C           13.47621142089355       15.55730665142644       22.48676497155928
N           18.56584524106155       16.94687809631452       19.76860206236401
C           12.86566439485353       13.76407439905459       20.84645907586904
C           13.29894282831742       12.46886295105086       21.53254447147958
C           14.54348553418139       16.39785877119200       22.72239575164430
C           14.79103117917736       17.23708632158315       23.93577873608684
C           14.32496407732240       18.70799802540353       23.86313314460234
C           14.49982051939352       19.34455236991268       25.24475368346708
C           12.85699281561403       18.78230745009785       23.44626109075727
C           15.13740472285190       19.49566131528562       22.82449029583283
C           16.97134947837618       20.76915871402778       23.60861743186092
C           18.47807964793836       20.76902501892033       23.83544948322987
C           21.30080170854751       21.51051523180177       22.05963160188615
C           20.76479544328237       20.63063915678157       20.92827633531170
C           21.18292512433655       22.40465541767478       19.32134601217527
C           21.71341815013259       22.76778508306019       17.93223687512070
C           20.91147955890267       23.88960496857900       17.22698964624189
C           21.47982572530544       25.24773719882373       17.63791421219903
C           19.40922447539089       23.86442027516824       17.51186640493763
C           23.21717771161694       21.21243139611432       16.92817695009167
C           23.57006154944708       19.96045934158324       16.10237837548854
C           24.94443260608229       19.43526867559278       16.52803472768370
C           25.37358038332913       18.26980544959462       15.63794589254845
C           26.48551869620680       18.76829145667888       13.53618919702930
C           26.32526407639558       19.24568037202125       12.18673277422651
C           26.26658436789181       19.65201987174039       11.05515697439226
C           26.11442992875623       20.16274445370558        9.69549530061193
C           28.30610558804308       19.22473424050149        9.14505169682060
C           26.72641127239845       19.55221298594968        7.38988985555218
C           24.61842939537980       20.06859838953227        9.35136849091297
C           26.54927597511396       21.64320337461447        9.70648605727894
C           24.05004038501181       19.09562434561218       13.79064174919971
C           23.57013597115278       20.29947577332720       14.60743551197737
C           20.76816808662729       20.98418926291042       16.49864008096564
C           21.28719143413735       19.21319250400030       21.18509620041134
C           20.64315604204588       18.13276979643579       20.31220841140731
C           19.15953503349080       17.93156998714456       20.65361854186062
C           18.76658340853795       17.33392836034976       18.38136645530056
C           20.26399263491229       17.46770835635517       18.11865873217913
C           20.76467067768138       22.47721378522782       24.24798027513055
C           20.31147600949489       21.53762857786029       25.36759506289924
C           18.80996736736966       21.27631456224926       25.24729621805325
C           15.42790435519258       16.23898184672397       21.61424788655317
C           14.85036466808332       15.26865414536889       20.76468421154668
C           15.51948154875016       14.85001270335095       19.62077233444985
C           16.73291215669452       15.42523179236151       19.32592749760202
C           17.30867375648958       16.43163038399332       20.12973546430647
C           16.65183436419358       16.82517251147215       21.28476665803966
F           22.65446210650148       18.92860364206239       16.33659460593400
H            9.49374023948130       17.98572397070866       20.96556466744459
H            8.75686759587480       17.12569485694371       22.33590921974723
H           10.15501832112874       18.17705992973117       22.59168297482821
H           11.53320982150022       16.61440439586108       21.16397185445362
H            8.65702493330981       16.18917950666031       19.69469470095632
H           10.34620074788034       16.15126747193387       19.11035652030916
H            9.36760446823092       14.65908261182342       19.13345494974232
H            9.33614491579709       14.78009084471881       25.65820391085686
H           11.61292568778433       14.07922627537826       26.43256155982983
H           13.53726098715410       14.45139303024464       24.88689692084328
H           11.81000843481081       13.95349113455266       21.05176901874542
H           12.99711250352354       13.67663413235616       19.76607356873815
H           13.11078529620212       12.52959135774540       22.60258679884577
H           12.73680143432849       11.63209670298326       21.12913851371733
H           14.36079724775502       12.29236904925374       21.37464525449903
H           14.28207957008925       16.78180561422195       24.78737293824129
H           15.86428203432166       17.23280542730193       24.13996357366435
H           13.82408464244989       18.88183218281538       25.95888953255254
H           15.51909563168964       19.21581588999085       25.60401999799445
H           14.28484031276601       20.41054958950365       25.20487638925220
H           12.50204409466229       19.80938088361768       23.48365968104931
H           12.73094294351064       18.40513119273864       22.43530431227147
H           12.24934830976343       18.18052243916096       24.11770429150927
H           14.72926528283610       20.50562794078652       22.72332251648062
H           15.11295841779110       18.98424705753530       21.86066668935682
H           18.87863374946653       19.76403852646340       23.67164524471023
H           18.53262005030253       22.53521338245706       22.81072461419114
H           19.67123777602129       20.67543095985370       20.95899697445082
H           21.54521289273425       20.39883330600703       19.00016942956032
H           22.71812178541223       23.16736874897166       18.13324131344978
H           21.07663908693291       23.76908885271236       16.15103720774339
H           22.52825184208185       25.32844000680130       17.35924582119771
H           20.92890640543157       26.04992373464573       17.15439545830614
H           21.39728199034202       25.36765793595981       18.71575403532935
H           18.96475213597619       22.89550325697823       17.30828049656948
H           19.22896682854840       24.10885365601631       18.55546456071190
H           18.91381553460803       24.61036248977617       16.89554034354778
H           25.65990666407500       20.25414864589525       16.46118073525585
H           24.89597667282105       19.11177094106707       17.56809933788818
H           24.68793354316933       17.42769582106207       15.77486554110096
H           26.38871070574190       17.95518426389904       15.88561118549596
H           28.74014512780911       18.36948692927718        8.62736848045775
H           28.86959897191774       20.12392137255026        8.85204516057280
H           28.41969011400817       19.07163885670485       10.21690126444899
H           27.30475684473726       18.80735877279430        6.84522039253844
H           25.68266677542860       19.43806243142859        7.11205446853204
H           27.07809145686142       20.54809598276438        7.07809875321171
H           24.39405461405682       20.63262550349998        8.45109376458286
H           24.33986449972850       19.02821619684079        9.20782208977204
H           24.03294745136786       20.48217602278026       10.16824536321214
H           27.58996423624502       21.73753587459441       10.00755709259485
H           26.42186618352021       22.07673344355977        8.71853306347682
H           25.93863162035439       22.19789563662331       10.41383383696524
H           24.10712454292597       19.35478300467796       12.73431766060180
H           23.34915467613564       18.26544499740857       13.92296986896307
H           22.57274889988269       20.58724448085036       14.27822281384809
H           24.24384834898121       21.14506314727717       14.46344567052669
H           20.23475439985991       21.72439187968828       15.90412717504993
H           21.02943923767940       20.15480414523324       15.85575569605264
H           20.10923378744620       20.61739132820691       17.28622271279649
H           22.36507131994081       19.22483541833094       21.01440083881974
H           21.11453745867079       18.95639565523317       22.23007974727127
H           21.16095895982741       17.17741117120306       20.50527156469378
H           18.62844270893896       18.89462027162407       20.58784527022836
H           19.10743809460926       17.56391471542427       21.67818273361242
H           18.35226834471759       16.58535142695129       17.71183779931286
H           18.27878327247577       18.30174777384804       18.17445376914154
H           20.46239531417574       17.77755891066073       17.09404929710074
H           20.75845645939489       16.50674638336181       18.31462678008166
H           21.84571919027692       22.61368493404387       24.24203954532991
H           20.27581786406258       23.45237763506962       24.34038993151430
H           20.53871843499456       21.98301154702382       26.33468441983251
H           20.85870774981024       20.59732963471797       25.28219160694865
H           18.25305422994708       22.20043614020549       25.41945879319756
H           18.49097887379027       20.54135719172034       25.98600286824995
H           15.11559726546477       14.08284093021355       18.97806703742769
H           17.26630416980331       15.07180403600388       18.45813459389039
H           17.05358800234083       17.57490504156027       21.94351870709312
