151
 energy: -221.320372774404 gnorm: 0.009024641140 xtb: 6.7.1 (edcfbbe)
C            9.87015567184611       17.36130117249214       21.77024729155474
N           10.14913581042411       14.90822297921605       23.17273108641179
O           10.51939730680249       15.59632494897344       20.17756916057191
C           10.89938930237893       16.30915641036603       21.35615311917359
N           13.91435006606104       15.02076908424597       20.82407200787944
O           16.19729372013499       19.61653460003537       23.47882267674783
C            9.24836935769480       14.97768562836674       20.19575951186778
N           18.76724339721520       21.78195334781773       22.33249540038318
O           27.77605219296467       18.21207449583801       13.75983229009208
C           11.20275455074143       15.36774693776705       22.51068106410705
N           19.98079666206247       22.30892344329810       22.78801505144859
O           25.03230141010577       22.04932117289209       17.54875740445124
C           10.32665521385672       14.11306422006246       24.21581489757234
N           21.82046288880193       21.50470371300975       19.87524787466155
O           21.01974039495119       23.59959293874820       19.93338329844640
C           11.57638463104765       13.74018925417487       24.67333156751949
N           22.79884730551705       21.82247718908009       17.39071912237528
O           21.19662635874459       18.85431079452173       19.22569062188207
C           12.68307944770259       14.19170924247351       23.97631935919316
N           25.65275878554925       18.39771950247039       14.54384447568427
O           22.20847493527675       22.49905020916918       22.50764942143294
C           12.51523509037470       15.01089656107636       22.86139183850339
N           25.46137330186401       20.36628039708309        9.31539885335035
O           16.10575991297089       21.31544030334941       22.02591073261514
C           13.69734570531866       15.45116869691145       22.11235722602225
N           18.79920912063592       17.42902385884227       19.80335092980535
C           13.19211515195839       13.98142526335888       20.13611258687287
C           13.81062957267324       12.60697572845410       20.38989825505887
C           14.73066445614005       16.26743864275826       22.52411730519444
C           14.95119676086882       16.85385547913263       23.88408256726469
C           14.31033838175772       18.23021464304251       24.15865311333575
C           14.64307503563858       18.64666118281474       25.59348306164703
C           12.79419604133238       18.15966033784483       23.98547136572081
C           14.83614921247528       19.27802288272686       23.17251521982167
C           16.69940538657202       20.66358583686880       22.85796539699288
C           18.08578476567807       21.01337399552493       23.36468759534432
C           21.12983967612230       22.04449479573205       22.14640149955103
C           20.99611295836297       21.06469691487741       20.97815472046728
C           21.73350589095350       22.75447714324806       19.40374127230032
C           22.61952682419554       23.03524034115223       18.18392416930923
C           22.20552803475801       24.25787102114391       17.32884715723678
C           22.66034102224812       25.53613470422192       18.03444779302477
C           20.71283033400563       24.35588667736237       17.01661975688618
C           24.05481248948494       21.40337690498251       17.17330686365995
C           24.29575276091298       20.05314880360264       16.46360604145288
C           25.75536097187318       19.63032771994875       16.65023068140725
C           26.04186693521624       18.31008299232609       15.93250841553493
C           26.57429730828091       18.40229895646391       13.56265462227396
C           26.04697784630244       18.62190027997060       12.23943149575796
C           25.71873634622924       18.82337685093092       11.09841237092164
C           25.16224046153974       18.99987888968170        9.75894242970719
C           25.01328931205022       21.39803352727484       10.22715422269257
C           25.06585859162928       20.67549792947720        7.95709319187317
C           25.86960550850306       17.97785317788264        8.85338081154626
C           23.65576140598436       18.66684868336557        9.84089493478820
C           24.25829977202372       18.71300379130640       14.35402843550381
C           23.94005232892978       20.07581108297447       14.97497085117372
C           21.59464447652973       21.22090887384756       16.85200854194014
C           21.41199318530733       19.67039681524033       21.45653950786561
C           20.86672232619205       18.54673442974658       20.56716112435239
C           19.35174574453811       18.34340349185462       20.78435178355017
C           19.14190412169137       17.86745921198316       18.46131031091783
C           20.66109108599074       17.88859231096410       18.34918871702284
C           19.91986999760509       23.13870496725197       23.97699073091393
C           19.30833575322524       22.32008987169666       25.11442169260808
C           17.93693107799439       21.79750777861857       24.68525319207517
C           15.63765053221142       16.35262320079720       21.42298590876857
C           15.10550991732103       15.53697861517863       20.39925935280300
C           15.80237369081004       15.34503510642882       19.21497708023493
C           17.00816749180572       15.98360859605038       19.05875099797109
C           17.54519964152090       16.84993676288313       20.03574918288504
C           16.84623901156549       17.02650212882042       21.22315789541774
F           23.50466020307477       19.07939343729443       17.09804871023508
H            9.59823200702015       17.96334574727663       20.90648401046597
H            8.98732771680788       16.87893702189498       22.17833852239221
H           10.29553193841850       18.00570421429525       22.53286156250790
H           11.83022092524424       16.79951378762617       21.04598096305034
H            8.44555812387456       15.71595891311621       20.17304977992780
H            9.21015707272007       14.37228564756578       19.29107747295446
H            9.12980709947093       14.34011801450608       21.07552420686349
H            9.41888240249823       13.76810021762216       24.69251849753561
H           11.68114443434350       13.11401371176109       25.54304703990868
H           13.68060834890229       13.90406755170633       24.27743950605552
H           12.15437495464826       13.99330998284806       20.46995952179644
H           13.20319309521633       14.21187498361963       19.06778722863834
H           13.78412073934880       12.37235317810314       21.45175200293494
H           13.25377572156738       11.84890853424645       19.85021840772010
H           14.84587608279456       12.58824357494453       20.05803922223992
H           14.56979437259344       16.16182315351108       24.63699025728620
H           16.02863365892989       16.95217896503484       24.03256270719463
H           14.19259425168345       17.95066552757823       26.29532245210495
H           15.71930682011906       18.64836469034223       25.74890107620798
H           14.26043246083791       19.64309654422740       25.79997931861371
H           12.33231048270248       19.09795161036159       24.28322102494688
H           12.54887142672985       17.96598240079460       22.94608697237403
H           12.37872867301416       17.36090175025070       24.59456429727482
H           14.24169698445157       20.19592728969558       23.22300765586888
H           14.79212138162243       18.90087999766587       22.14622717119433
H           18.65125875134011       20.09411258427539       23.54326943605975
H           18.15412176090418       22.53551192950963       22.01056149821674
H           19.94771881016342       21.07068605768707       20.66338015843246
H           22.39690559905085       20.80702283218503       19.43196762563360
H           23.61428623764404       23.26573456433801       18.59268515695953
H           22.76121327435619       24.16986474314289       16.38695799473120
H           23.73867915304283       25.54259978292922       18.16494557307941
H           22.38270561886828       26.40412440816203       17.45263630425934
H           22.18926692903133       25.60016943238764       19.01410937355522
H           20.35729105604248       23.51850732628790       16.42642548670682
H           20.14224078495695       24.40629479389296       17.94042998849158
H           20.52914387839565       25.26556254237673       16.45148363971688
H           26.39352984186864       20.42434576471971       16.26269017257153
H           25.96223102440350       19.52458203433907       17.71576203064301
H           25.47800582258867       17.50065690605644       16.40616445559419
H           27.10785506779228       18.08256393352890       15.97481526544930
H           25.35009434978578       21.16290514575546       11.23571381478682
H           25.46729717146590       22.34231792356845        9.92282468633136
H           23.91944873597638       21.53090935511349       10.23409329462670
H           25.49770127021842       21.64178127903876        7.69916692125457
H           25.46359671353552       19.93428948978984        7.27003383857539
H           23.97539752932883       20.74295841665397        7.82498842599746
H           25.31449678244205       17.82544731247319        7.93213722065214
H           26.87336604178895       18.32573055231434        8.62282437515165
H           25.94449937759633       17.02561667266950        9.37246149650516
H           23.15671869705962       19.31150265287177       10.55960136747363
H           23.19348907690823       18.79432230397159        8.86627900735012
H           23.52967849230958       17.63443889455342       10.15495415487836
H           24.02641635179045       18.71417869310596       13.28897972495831
H           23.66202187344389       17.94175606966453       14.85201643062327
H           22.88593582309652       20.29499353847953       14.82948488998930
H           24.53560020660950       20.85533789319685       14.49821136912109
H           20.76142104915572       21.48356861963166       17.49848649845284
H           21.39714640536862       21.59897997459893       15.84812465491766
H           21.66904508630364       20.14008916336494       16.83355167356577
H           22.50176260951417       19.62928450614774       21.47570321116273
H           21.05099041494310       19.51660194075068       22.47306316473386
H           21.36755800982762       17.60068727778005       20.83609929398407
H           18.83558434683473       19.31731991350433       20.75235686127130
H           19.23164971100033       17.91245104165613       21.77864442230240
H           18.73752419543765       17.19204838335659       17.71397758489043
H           18.75281154154207       18.88139107788073       18.27292571924914
H           20.98141052218675       18.16594980311879       17.34604931223447
H           21.06145920751517       16.89590975744375       18.59735711312928
H           20.93703987497408       23.45711974697859       24.20337968281176
H           19.30603223359573       24.02099856762191       23.76348467697084
H           19.21314307112190       22.94083705697395       26.00389373803867
H           19.96861934526320       21.48198972999453       25.34429234680911
H           17.25727797123473       22.63826029536015       24.52213620674905
H           17.51080247211560       21.14742439216181       25.44869812588498
H           15.42638064326514       14.70319561271451       18.43332183015971
H           17.55866431305698       15.78678532454719       18.15439909856061
H           17.21192435314507       17.66893209279448       22.00575951009800
