151
 energy: -221.317469873492 gnorm: 0.009985664071 xtb: 6.7.1 (edcfbbe)
C            9.90154488778408       17.08504269770262       21.14497595832491
N           10.13714487868924       15.11656332427590       23.15610532443981
O           10.44938392743309       14.83568362608778       20.30619338475343
C           10.92640205648205       15.95375139759017       21.05649739473608
N           14.09116116010705       14.91568602423287       20.97780069555503
O           16.15523947475349       19.78147596404863       23.09664190275635
C           10.23900338612737       15.07023615587735       18.92866445712719
N           18.68285915242292       21.97875002466614       22.29066489636791
O           27.91128388863045       19.17938997128159       13.09407509591089
C           11.21596936201077       15.38682396735678       22.43439268072830
N           19.86239867303634       22.56042171754663       22.76280232536556
O           25.12949787556909       21.95262474632278       17.34388604588441
C           10.26859552756017       14.57571250347871       24.35233593409724
N           21.90418677859498       21.29331325702329       20.14472363150263
O           20.87599181903406       23.21601613587582       19.65552577426149
C           11.49924528868301       14.25551976247748       24.90437044037816
N           23.01435247596291       21.23402717277782       17.58833891740773
O           21.70683776661679       18.35060612879522       20.09951862620118
C           12.63007703800640       14.54292199551751       24.16431170005258
N           26.07956629038785       18.50702386527647       14.25657392202646
O           22.09421873362782       22.78702500221843       22.55143249088546
C           12.51253221391990       15.12985657626015       22.90288767579669
N           24.58870116969640       20.74569306069148        9.27489384160942
O           15.91944482855637       21.76463674130834       22.07712335949483
C           13.74739116995187       15.47360752358925       22.18944364765120
N           19.16061609089146       17.09575921024860       20.38865712858158
C           13.46151635835190       13.77836782192178       20.35478983060363
C           14.10653882294759       12.46951317951678       20.80704942119706
C           14.74284404628399       16.32536136719740       22.62158844898642
C           14.76854260621439       17.14216637095798       23.87447095393671
C           14.14342585640650       18.55037903807851       23.75694178659879
C           14.26627585547477       19.26316939731186       25.10548095328952
C           12.66896821572826       18.44902287041543       23.36735745023316
C           14.84446354097298       19.37821471604790       22.67347935550250
C           16.55645232256256       20.98783140334435       22.75937818578472
C           17.90860445033730       21.34589998724274       23.35286350603992
C           21.05079899326820       22.23430150544394       22.22913302967952
C           20.99935010199251       21.05847240509536       21.24672366913882
C           21.73500716439087       22.38302748866690       19.38717515847638
C           22.70144849688092       22.52086195346383       18.21036614444758
C           22.29642112074722       23.57915309232685       17.15421720758473
C           22.54505484809440       24.98182786628821       17.70760047497537
C           20.85087442505264       23.46439419260553       16.67357168462994
C           24.28085071354967       21.07792950973943       17.16931485792540
C           24.71017662928474       19.77480720044422       16.45588562519884
C           26.23882611127997       19.74783624388735       16.34768864816612
C           26.73797020165125       18.54653675273068       15.54101837870955
C           26.70860775078772       18.92596910822625       13.13948000639364
C           25.85262306719846       19.05248066233372       11.98649206881152
C           25.19997045628963       19.24146603728837       10.99224230807870
C           24.26707551419616       19.45104393141555        9.88651928019424
C           24.55165919284226       21.86040523922137       10.20129036519179
C           23.84719191043670       21.06391326329080        8.07131954829786
C           24.49552454020936       18.31033609467211        8.88065092012251
C           22.83901949125812       19.35071277076997       10.46617985995787
C           24.64644545138771       18.38678595840419       14.36853166181406
C           24.07632942763530       19.62396701366646       15.06899516148198
C           21.91177235727037       20.33518119727184       17.29617558714842
C           21.34531948498507       19.78051849491756       22.00414358880722
C           20.94774178603011       18.48828609907886       21.28867516782207
C           19.44985459195888       18.39543376891475       20.97196250584755
C           19.96426865010444       16.89664782909653       19.19469548626309
C           21.44597594758543       17.08755945311104       19.52849348401063
C           19.71199259200570       23.54558378929384       23.81613689776445
C           19.02339558393516       22.87069361651314       25.00379839859482
C           17.68533342923292       22.28493597208086       24.55462996217589
C           15.77543348903768       16.27425512882138       21.63509410197554
C           15.33473317569143       15.37744835054412       20.63660538517881
C           16.13181197802697       15.11916859815494       19.53089944172028
C           17.35842474649164       15.73787554417327       19.44615088201143
C           17.85300861035345       16.59832378770329       20.45104662238886
C           17.03420460949900       16.86721039498057       21.54287971167288
F           24.31283467101342       18.68227396311238       17.24449799851807
H            9.75042446879771       17.54776189895209       20.17354374309289
H            8.96338483726633       16.67839745725657       21.50910089950945
H           10.25322981254595       17.84016539548528       21.84078196138404
H           11.85709461215014       16.32507222293496       20.59535905832718
H            9.91301322454130       14.11169334376517       18.51782606608096
H            9.45800821353031       15.81877171990874       18.76080658490033
H           11.17252189771144       15.38929754652178       18.43842512602854
H            9.34431189549114       14.39108254614469       24.88092810746835
H           11.56797488976150       13.79606327289554       25.87711523114129
H           13.61283025321895       14.30399748458803       24.54278053989505
H           12.39967396879900       13.77293916966332       20.60660081648341
H           13.56105519016178       13.88675701138376       19.27087228471115
H           14.00173900481984       12.35231823911359       21.88274568938322
H           13.62286996986980       11.63067344595596       20.31573340119371
H           15.16505422003126       12.46293236272298       20.55833457234467
H           14.22908996613130       16.61539792451054       24.66318674733979
H           15.80699400828052       17.25658696091074       24.18900895811824
H           13.67871968185160       18.74461891530181       25.85714884037492
H           15.30186770261817       19.29010162193464       25.43227151813090
H           13.90418182079151       20.28512011372946       25.02770383813113
H           12.20011474734113       19.42936513238323       23.39711925984316
H           12.57034563616490       18.04595693584641       22.36381888835717
H           12.14051746486205       17.79353333224709       24.05500976553623
H           14.26639765182713       20.28431457755086       22.45784224875506
H           14.94962326835285       18.80207957017986       21.74959080860626
H           18.42875326827993       20.43804393117595       23.66999552050079
H           18.10507656496068       22.68739732585033       21.83476801070684
H           19.97491551735377       21.02647193049053       20.86120327407228
H           22.60523628193161       20.59498048644801       19.94730492756239
H           23.64498221848247       22.87370401189932       18.65039399792228
H           22.97045299038142       23.42253110020894       16.30247983108690
H           23.58904364388075       25.10357684777172       17.97751344305852
H           22.29379032367801       25.72918734420169       16.96070386257346
H           21.93540244745387       25.14760995868098       18.58937002461230
H           20.63557805834733       22.48725624918035       16.25814481523755
H           20.17071898470614       23.65667764253577       17.49712432118984
H           20.67449992183625       24.21011051137901       15.90214815890699
H           26.55155693806940       20.67510803142208       15.86416123468881
H           26.66926484591848       19.73143972121065       17.34892276781198
H           26.52153758513749       17.61783954653289       16.07534719444497
H           27.81283435481883       18.63031404990124       15.37399270215526
H           25.07367528552176       21.59377848911802       11.11792349958695
H           25.07062619156221       22.70257849428070        9.74493318945541
H           23.52902927562162       22.18171629600101       10.45004949190829
H           24.25765356222139       21.98732543736640        7.66555469361470
H           23.97714177836735       20.28143418594648        7.33058439159497
H           22.77353190338772       21.21890566255828        8.25221397262183
H           23.66579014078697       18.24319402260477        8.18269849166819
H           25.41932345855317       18.48068782027193        8.33640574924206
H           24.57415724442070       17.36574936507708        9.41364144812841
H           22.69105555250774       20.08698373573851       11.25261873295056
H           22.10562740090139       19.51492158200462        9.68096171872849
H           22.68527278961499       18.35873868296688       10.88261677987739
H           24.20644462455278       18.27606171304312       13.37859580463976
H           24.42594963900219       17.49806171220418       14.96693714779540
H           22.99921482880642       19.51405612857063       15.14702008978973
H           24.30694903417280       20.52015140834088       14.49065832856758
H           21.08943515740946       20.56893527388170       17.96430072895373
H           21.56602048847989       20.46550462555490       16.27048279690689
H           22.20159216183927       19.30165171778943       17.46494345553884
H           22.42068107672362       19.76420246122475       22.18173439344204
H           20.84181008429823       19.79910199244473       22.96958189393509
H           21.19679105191769       17.64388472722522       21.95524057581723
H           19.16669937578190       19.19636677079988       20.27057013764645
H           18.89424335082436       18.53041389411216       21.89578318942358
H           19.84733697435050       15.87912543928088       18.83084244989158
H           19.67534248644262       17.60597234138246       18.40418559610249
H           22.05362153249326       17.02492530501021       18.62491034868266
H           21.75988979240944       16.30087195155840       20.23008303654449
H           20.70693434671919       23.91011019631321       24.07260461968335
H           19.10695729432783       24.37937455687952       23.44321289896674
H           18.86646405963547       23.59588061844286       25.80041229553856
H           19.66874723007767       22.07517540271997       25.38083523876372
H           17.01376960547091       23.09024761457288       24.24646208959345
H           17.21440845510361       21.73320701485050       25.36760604357601
H           15.81260001638115       14.45183935315402       18.74625382585870
H           17.94811713284379       15.54142179646880       18.56722374913218
H           17.34394296288614       17.51462533704224       22.34570063891989
