151
 energy: -221.322956044196 gnorm: 0.009104316102 xtb: 6.7.1 (edcfbbe)
C            9.72767983965534       17.49630048648538       21.83088441400685
N           10.01893695261088       15.48449664807870       23.79605569069123
O           10.05948592187832       15.25491312507758       20.86663336519246
C           10.66227692150944       16.30443734966022       21.62929516424649
N           13.70380010695983       14.89402458046108       21.24227106205888
O           16.51922244913867       19.66570874360569       23.18664720818526
C            9.69549388619329       15.60760105072647       19.54669579996539
N           18.94169442100894       21.71466814040811       22.83634495787172
O           27.45411148802359       18.58642523354066       13.80015486757079
C           11.02957561389948       15.68058225883703       22.96152506846745
N           20.29843535324347       21.99359663424037       23.02960496561197
O           24.14984342121740       21.83347490207593       17.48948917927121
C           10.24625023821312       14.93277257552169       24.97417785581539
N           21.16648179863681       21.09105782017910       19.75420459573568
O           20.66900884596290       23.23174793108872       20.18932819893518
C           11.50547984341175       14.53628969088646       25.39525329470310
N           21.93102128999665       21.58342388887342       17.21215758497388
O           21.04498037815590       18.34796065834963       19.15382114818565
C           12.56808587964281       14.74569809632954       24.53636394966658
N           25.22049211149292       18.74006263435896       14.16869089126580
O           22.41232792945032       21.88564456110654       22.26112735461394
C           12.34675789586938       15.32909149301094       23.28802576279186
N           26.77705514463700       19.10093874354341        8.71483669105393
O           16.18171848973883       21.78490969126627       23.83886306185824
C           13.50869676043768       15.57037427261552       22.42585363428605
N           18.70302741201901       16.88570815732743       19.88399250890372
C           12.92825240632118       13.76603991209863       20.78538574156111
C           13.31972652737237       12.48511610217021       21.52142965454465
C           14.57224219306953       16.40867181317925       22.67974427603218
C           14.80110108473082       17.25302453485715       23.89342184921721
C           14.31566670121463       18.71647286948053       23.81338909424129
C           14.44663526304373       19.34946457578938       25.20115493147187
C           12.85823540107561       18.77308978561360       23.35707902100888
C           15.14581044962913       19.51267444119205       22.79458837080401
C           16.90371460476474       20.82793578093631       23.66655915238969
C           18.40456089285624       20.88438058333322       23.92316311373980
C           21.22672416286174       21.59592728783196       22.14614971009587
C           20.72278807615124       20.64279573627260       21.05687795462378
C           21.12203336968360       22.38433896189727       19.42381676876858
C           21.71245905946767       22.74922883081314       18.06119015300427
C           20.97516151243782       23.90663078450699       17.33645748824742
C           21.53016560612036       25.23761129371422       17.84254131742038
C           19.45579799481716       23.90126216158284       17.50359315588740
C           23.20236326841945       21.20505803823258       17.01240210716687
C           23.53561483289580       19.97947839558002       16.13702783611429
C           24.94242166920380       19.48149984530492       16.46962702407733
C           25.32340249054047       18.32503553145861       15.54944646137933
C           26.31899308178442       18.86891963902851       13.40556897566137
C           26.10126937833163       19.32203246535099       12.05631358855545
C           26.11533099620912       19.67054480438797       10.90330006081986
C           26.03393714457195       20.09023535208978        9.50624830106608
C           28.15569827208464       18.92731816394229        9.12579901920710
C           26.69311090149297       19.26436785436644        7.27858688087731
C           24.54533814413776       20.07510244852728        9.12231211865836
C           26.57539056254452       21.53155186481375        9.41290305560615
C           23.89301242469847       19.15318067713138       13.78193060063079
C           23.42259098725455       20.32703918323978       14.65062360700772
C           20.74349903109450       20.99480134299576       16.62441143094048
C           21.29595146971304       19.25926574805575       21.37176843310703
C           20.72794749026185       18.12238892785657       20.51830956616054
C           19.21761551712580       17.94918031774261       20.72907071844948
C           19.03943176876330       17.15615855991204       18.49305328894325
C           20.55652090399425       17.28015796675860       18.36712128603479
C           20.62444936103753       22.69333708005772       24.25972531495261
C           20.18807926905988       21.81183745754836       25.43272411778717
C           18.70029465110553       21.48275310904831       25.30742436570416
C           15.48285086573648       16.23650895693316       21.59475226783837
C           14.92722775466431       15.25671380266326       20.74284194852147
C           15.63880796959767       14.81245956337844       19.63536288907800
C           16.87298175489225       15.36666076525288       19.38193453376277
C           17.42417663208706       16.38893152972272       20.18253668622190
C           16.71547080397778       16.81532385278091       21.29726807955111
F           22.66293182127618       18.91638399702351       16.41746681612148
H            9.54960752657062       18.00767512900247       20.88933172918327
H            8.78724174889797       17.13901028422680       22.23931868474182
H           10.17508414769538       18.19537678572004       22.52999603919640
H           11.58148054946934       16.62886729515302       21.10692787048580
H            8.78285609329900       16.21251546915612       19.52504352159512
H           10.50864380089494       16.15176527932597       19.05020654639982
H            9.51801296816338       14.66737384216390       19.03028282818951
H            9.37616954885611       14.80744923048353       25.60395293797369
H           11.64648033518650       14.07942725987597       26.36112794742492
H           13.56844624524066       14.44637655116170       24.81083940143940
H           11.86573470114413       13.97109240587675       20.94012915495184
H           13.10779618789906       13.65401546835144       19.71363089851121
H           13.05401394356543       12.56408749023867       22.57348517508999
H           12.79507182451722       11.63578878698227       21.09647053959247
H           14.38931612829004       12.31429090284075       21.44433642218085
H           14.29708108867394       16.79110232685810       24.74469189659289
H           15.87350912482049       17.26473397388789       24.10013487197167
H           13.75876887240698       18.87470479481826       25.89570461607532
H           15.45795556480374       19.22891320937870       25.58659254030667
H           14.22127044509673       20.41336107179757       25.16213466706571
H           12.49600612545991       19.79851519181033       23.36510572127276
H           12.76305688346533       18.37682453003423       22.34998200655927
H           12.23849637725747       18.18018636335515       24.02408875594221
H           14.71630998476657       20.51004128877925       22.66429717337364
H           15.16885028060208       18.98663891855255       21.83886123725013
H           18.83935762450461       19.88488783015453       23.81762788654382
H           18.42440998531756       22.59530322041157       22.80311157462384
H           19.62924527239889       20.65042844037006       21.09475579439152
H           21.55310892389599       20.38219424812077       19.14669063550863
H           22.71906278591681       23.11834119219468       18.30497833612703
H           21.21833407457912       23.81597313943170       16.27280016335371
H           22.59607202560144       25.31561961397200       17.63903766981405
H           21.02441100929587       26.06891977257883       17.35777547315066
H           21.37691571726132       25.31153575706471       18.91591686732314
H           19.00246093750282       22.97998735651960       17.15389927507929
H           19.19900433388796       24.04375236872691       18.54992782549671
H           19.03215341152454       24.72625109761287       16.93550235949979
H           25.63981903002096       20.30982063969902       16.35283833613413
H           24.97019626507403       19.15931138728599       17.51201124836448
H           24.64848526859445       17.48112483195607       15.71313390523027
H           26.34986011886551       18.01178868477099       15.73834519953204
H           28.53299568065482       18.00717232798914        8.67954291277280
H           28.81032816159793       19.75401392871040        8.80754678604672
H           28.21377373150944       18.83285962421014       10.20886375397996
H           27.17438297816037       18.40121711377783        6.82094963481471
H           25.65465951492405       19.27922061762331        6.96028493860940
H           27.19945770045199       20.16998794739106        6.91186559348975
H           24.38662977979300       20.58468029217920        8.17542850595184
H           24.19458131880414       19.04954236978232        9.05092875247975
H           23.97242852776743       20.59284538166444        9.88819512931956
H           27.61395721899575       21.57545909604540        9.73372077853321
H           26.50107625676278       21.89071239292587        8.38993812911042
H           25.99220086254933       22.18329381009705       10.05740454039189
H           23.89879098715140       19.44218461605692       12.73047571477666
H           23.21427817500229       18.30350963013220       13.91873962270404
H           22.39227743832235       20.57052466481970       14.39741944741748
H           24.04821756076887       21.20130625395038       14.46924531839714
H           20.41533740955619       21.58659531393385       15.76872964540805
H           20.91218045737008       19.97444186795896       16.30846930124944
H           19.95871668404987       20.99020840840965       17.37699068586222
H           22.37777100837851       19.30620083106931       21.23447947415671
H           21.09864511930735       19.02955253817722       22.41931504957046
H           21.21726419213464       17.18324129180599       20.83022160917741
H           18.69777542397873       18.89732162536851       20.51598612854321
H           19.07038349981565       17.68506315395693       21.77618450894496
H           18.69642547071571       16.35073625619087       17.84827474980328
H           18.57405833695058       18.09910575413084       18.15749696447358
H           20.85123435039817       17.49148984024418       17.34187597916234
H           21.02611149325498       16.34232633147717       18.69556931199301
H           21.69720333342025       22.87893377938637       24.26180551115006
H           20.09049632919691       23.64919087287355       24.27208311107433
H           20.37977072067887       22.32849225700525       26.37282874967700
H           20.77549172096932       20.89014716478608       25.41823323255737
H           18.10461824724960       22.39148020582575       25.42010096026758
H           18.39894259447882       20.77826161636278       26.08294590264580
H           15.25698462400519       14.03610541484237       18.98937390001514
H           17.43767249163199       14.98284368754524       18.54753890117772
H           17.09313240074666       17.58369822644494       21.94936362177211
