151
 energy: -221.310979353439 gnorm: 0.005697266068 xtb: 6.7.1 (edcfbbe)
C            9.62834336853102       17.08286918935539       22.64368508391927
N           10.41165730750253       14.82063384024771       24.18121605721324
O            9.80626672110611       14.99162167229157       21.35596634927160
C           10.53150179035840       15.98489426608921       22.08346996406198
N           13.49293221478578       15.06439355215136       20.88391706273341
O           16.53748601401579       19.47702321469009       23.14122886240286
C            9.30505969903956       15.41072876834200       20.10474362695166
N           19.19570125483984       21.76123695349586       23.06535244523612
O           27.78518172878072       19.04242272728189       14.35616348914212
C           11.21381257635798       15.23053385921361       23.20871800108385
N           20.58472074427702       21.62956597538631       23.07683564565580
O           24.22505173716073       22.98653585643992       17.82665086373844
C           10.90879380995597       14.12450862371430       25.18669412319911
N           21.04539066893210       21.56210140370113       19.61594176712154
O           21.08367328084437       23.52919662397830       20.68828747925846
C           12.24947993251307       13.78396839551876       25.28158605843252
N           22.06754083978316       22.52877654121805       17.36417028952484
O           20.22659872753349       19.27474303151428       18.30043170115334
C           13.09575475086899       14.21589963210014       24.27822438831204
N           25.61082918638119       19.52469660833335       14.79353252141697
O           22.58896290680716       21.23870280178240       22.13260357275828
C           12.58948182609612       14.96135844305264       23.21199479011628
N           26.61424045454787       17.91793106690489        9.39916352680547
O           16.42237405891005       21.67551047886730       23.58158904280561
C           13.53410142881745       15.45329118127961       22.20499981043038
N           18.06166885099557       17.60053003041416       19.04425807518849
C           12.71578634194204       13.97593554143234       20.34490817547484
C           13.50669972247265       12.66891959573332       20.36840099317588
C           14.59518277183494       16.30645922819526       22.41947959817458
C           15.02132054745607       16.93712226285711       23.70634711540901
C           14.49651067681822       18.36741335184909       23.96481899081142
C           14.86071408931235       18.76826069862433       25.39659173577582
C           12.98049696987347       18.42253903094813       23.78244942093911
C           15.11449438836565       19.37114076127883       22.97930393400773
C           17.05755523932954       20.65497981960928       23.44976649794175
C           18.56398424453982       20.55978642567254       23.60135677895866
C           21.36141161907830       21.26529189359164       22.04643076567826
C           20.66841794597728       20.77052626381710       20.76695129912556
C           21.23472740755326       22.88352009716906       19.65630356571362
C           21.65002236411412       23.54364905242498       18.32870516097528
C           20.57974272167847       24.50084844998852       17.75970080377181
C           21.11301045898257       25.19391871613155       16.50216503410576
C           20.17468325862484       25.56107680573455       18.78039614237863
C           23.38481493872568       22.27165790208174       17.28550648217046
C           23.86465133837811       21.01357711840080       16.53071094883620
C           25.30996049936374       20.70066467277737       16.92128874451129
C           25.77804526799205       19.42451137655382       16.22660233526322
C           26.64075499688134       19.28642359176825       13.96529916360538
C           26.32737955362856       19.29548703458621       12.55881557591059
C           26.21709302589227       19.17486712649978       11.36475988313094
C           25.93678689257711       19.10702763959110        9.93233418173346
C           28.03581214175783       17.87190339946128        9.67283643260685
C           26.35280476417269       17.63304006325242        8.00388361019063
C           24.41250828743339       18.95351999869916        9.78839354331068
C           26.38425758100712       20.44385851247052        9.30640453661382
C           24.26525668293935       19.82109940480423       14.36346436210036
C           23.76596177832504       21.11913293623613       15.00716332792308
C           21.02707987848717       21.87386185843527       16.58672349428066
C           21.11753996370111       19.31989912814297       20.53900419390878
C           20.26760960860161       18.55353085246209       19.51903180539986
C           18.85574548424801       18.27153558418169       20.05263404399445
C           18.03107269729805       18.38118369203016       17.81964375277611
C           19.46266036024241       18.58109976079015       17.33240591590640
C           21.07755155077337       21.70049712498607       24.44062714262958
C           20.47633498580924       20.52687579461183       25.22177724369158
C           18.95236005590730       20.51871357864405       25.09021941908951
C           15.26152571164061       16.43545661873877       21.16649730336255
C           14.55775208729493       15.63561738351095       20.23972918947865
C           14.99979004941212       15.52716534567841       18.92586287799445
C           16.14117768595593       16.20310976068272       18.56256900825814
C           16.86126383307055       17.00621141900227       19.47079574753818
C           16.40824876485490       17.12474057562498       20.77366127480071
F           23.08105665766925       19.93120226996099       16.96832929834853
H            9.15745956846991       17.64331616414248       21.84073706107349
H            8.86478272574957       16.62777622567345       23.26720619118661
H           10.22057723277834       17.76644195787323       23.24430940899791
H           11.29038881774056       16.42840291643759       21.41856402405084
H           10.12078366630501       15.72760675919429       19.44525448207085
H            8.80674088635866       14.54053887965451       19.68501967911885
H            8.58477492416682       16.22597578798362       20.20474142282271
H           10.19635052784696       13.82968233598501       25.94480321999542
H           12.61646983606899       13.20170996840953       26.11108745877552
H           14.14803546364397       13.97196757310068       24.29820353684963
H           11.79989438006158       13.86813557981604       20.92924333271975
H           12.44356697130182       14.22666378197280       19.31598357864808
H           13.74056952712281       12.38908086060464       21.39242498459779
H           12.92343113442854       11.87437004361655       19.91364925597048
H           14.43854282734892       12.78264698136922       19.81917715522532
H           14.68354152106345       16.31524469549894       24.53720982123361
H           16.11288492306086       16.97025456350625       23.72797558939299
H           14.31917667075987       18.14978409300842       26.10757086417164
H           15.92692183812171       18.64069926265321       25.57152532953342
H           14.60555532504623       19.81002717901165       25.57970916087100
H           12.59567523984967       19.39139454524190       24.09221891425994
H           12.71704734060564       18.26049127516927       22.74030939998121
H           12.50522108400614       17.65086870827441       24.38264203634761
H           14.67896099414229       20.36351942816319       23.12876821642144
H           14.93949802437369       19.04471301866592       21.95148008088904
H           18.90790433842918       19.63807965458667       23.10207536104780
H           18.84438596395487       22.07349510330829       22.16926962781121
H           19.57934488563641       20.81341519241244       20.87853255554017
H           21.17223747170770       21.01942068602852       18.77247282511964
H           22.53947094827617       24.13989706297480       18.56768628141989
H           19.68738340212014       23.92364698076198       17.50614399971698
H           21.76151402630846       26.02082973783399       16.78062521676344
H           21.69122587304940       24.51781134253527       15.88032184162717
H           20.28686845413882       25.58772824704547       15.91654834329811
H           19.75671349446754       25.11367644997154       19.67739197542713
H           21.03767191807230       26.15114225388239       19.07938603982829
H           19.43312437994752       26.22336058305941       18.34193634572403
H           25.93392959682640       21.54912561064682       16.64275430753602
H           25.37511232039799       20.57839116578334       18.00304848185100
H           25.19020430735404       18.57455853471582       16.59218231887003
H           26.83397273229907       19.24136499668809       16.43084701778604
H           28.40033497975062       16.87629003218124        9.41970211140340
H           28.61698910631807       18.60455925133981        9.09063452411703
H           28.21515016121580       18.04571559641397       10.73325378751653
H           25.28381589684549       17.59501584619016        7.82211404815956
H           26.81183711938686       18.35894029488157        7.31548704821336
H           26.76928684142035       16.65137917060889        7.78261141314798
H           23.91352396165317       19.66314047341702       10.44322444469657
H           24.10014799833318       19.15397537024858        8.76810913514355
H           24.11879713706452       17.94657958361820       10.06956940265656
H           27.43971434660972       20.62571448529775        9.49362148915437
H           26.20925073188930       20.42883245790050        8.23371552799563
H           25.81347238288839       21.25841866106837        9.74306237455193
H           24.25128275268370       19.90997890391061       13.27735341002228
H           23.60826618149827       18.99725907940464       14.66470139878937
H           22.74156754156035       21.29498658160587       14.68984301574519
H           24.38342398910603       21.96091546976442       14.69503927288362
H           20.85543331270890       22.41574526525044       15.65463484435782
H           21.28217243467415       20.84382612012485       16.36807502541620
H           20.10106728489894       21.87226891342164       17.15486753338394
H           22.15571504414565       19.34858337254888       20.20452422245583
H           21.08999642577310       18.77978136888536       21.48592658037605
H           20.75155022981150       17.58090917580272       19.33008675207252
H           18.37944780372046       19.21627344597238       20.36513979620544
H           18.95257030587006       17.61551645037723       20.91827853358667
H           17.45310639175574       17.86416983536207       17.05792404491343
H           17.57424896303014       19.36968988952970       17.99996097258153
H           19.48231221268669       19.19409749098911       16.43196806308782
H           19.92406530713496       17.60582979552764       17.12994133496695
H           22.16514631809872       21.65199124053342       24.40964385315673
H           20.75638870433177       22.65206695594940       24.86675631718374
H           20.75540769864431       20.61210897514828       26.27014014314731
H           20.88495618383788       19.59368191743561       24.83014615350442
H           18.53357441093627       21.40622863952558       25.56438925412147
H           18.53376835323622       19.62988180925736       25.56125439164541
H           14.47938451828906       14.91777467119924       18.20291975575306
H           16.50865005081215       16.09001155217448       17.55480195590293
H           16.92019258258239       17.72821541295389       21.50322687372860
