151
 energy: -221.321505397550 gnorm: 0.008908768686 xtb: 6.7.1 (edcfbbe)
C            9.71533744874121       17.31645897308201       22.18665047311946
N           10.19482447611562       15.13079881902099       23.86193419438725
O           10.11228932266658       15.25450700760437       20.90234902854826
C           10.69684739034869       16.21661128351712       21.77943518843252
N           13.77474145928818       14.84763499150798       21.12169029718587
O           16.50834978281812       19.56282441602329       23.07458496507513
C            9.69996490645049       15.77009134583071       19.65282188447900
N           19.04388560669617       21.63936089095267       22.74828193048793
O           27.42230278158218       18.47732948486171       13.89920762221945
C           11.15664558530355       15.45607504921107       23.00914721838218
N           20.40348581185870       21.81991365439730       23.02206942756083
O           24.23041457318544       22.29942817889167       17.61365732391262
C           10.49689669843388       14.49472128116130       24.97790999236477
N           21.26173822639714       21.29816794857144       19.70405089186664
O           21.02194920652698       23.38897145993104       20.48381872576299
C           11.79500344784386       14.15653489799296       25.32696583735580
N           22.02010911972172       22.06280692879336       17.25025630210758
O           20.77386800794913       18.73366755894043       18.75760500251043
C           12.80448594947969       14.48430219709995       24.44270996032772
N           25.25703395305632       18.99740838879081       14.36500226195296
O           22.54768775682250       21.59337145465056       22.36476914062441
C           12.50061556618628       15.13583664102750       23.24569014073071
N           26.58501359773912       18.60625063990696        8.73189196386912
O           16.24401055787406       21.75029565511342       23.50100000635114
C           13.61127288695277       15.45943698468279       22.34298908256979
N           18.59216810298722       17.10377179009961       19.55991838761201
C           12.96734184042997       13.77234159107554       20.60064724645931
C           13.10464514214952       12.48872067540983       21.42310247312075
C           14.66592302233573       16.31145570715313       22.59457739406552
C           14.91108927311507       17.11076462049790       23.83551381289094
C           14.38706848498610       18.56348980773322       23.81810939567635
C           14.61047594527900       19.18340129510436       25.19931414310907
C           12.89707465584740       18.58975084555554       23.48217502572653
C           15.11751538067256       19.39139947357827       22.75278199717522
C           16.92970290991602       20.75319366494407       23.43312151108439
C           18.41851494784091       20.76453482813068       23.74529090382260
C           21.35041097531905       21.43328011458621       22.15055475404695
C           20.83554127579848       20.66127390084978       20.93252284836792
C           21.31095170719740       22.62398667825279       19.56704971908123
C           21.77135045168761       23.14563963355950       18.19870925179570
C           20.86801876547724       24.27635979372260       17.64766109262896
C           21.34418779990889       25.61773521644758       18.20650447267366
C           19.38342479098892       24.10389777605899       17.96855791092207
C           23.29840666660440       21.68323299843722       17.09376388955565
C           23.64400666209753       20.44667750773206       16.24357767587775
C           25.03739112438222       19.93300325664057       16.61516454193991
C           25.38507001672388       18.70505566470183       15.77464302732852
C           26.30456036494902       18.85397324876946       13.53433328931849
C           26.05257436556266       19.15197130311205       12.14729580829539
C           26.02531418090751       19.29674786673511       10.95224797930201
C           25.90061921453458       19.62536196652494        9.53766153681832
C           27.85476578897450       18.15941919937632        9.26272467833821
C           26.70834427053033       18.94117077260675        7.32809497959280
C           24.39731474889001       19.61674659000958        9.20498502527377
C           26.46831410254849       21.05333160425645        9.37337138541289
C           23.95362925548088       19.46953820550928       13.96426264310857
C           23.59236786208587       20.74012282244588       14.74076491475691
C           20.86032349183658       21.50131266134803       16.58348830495096
C           21.39472878070917       19.23698853389189       21.01428175651015
C           20.69748398714045       18.24377341414633       20.08314373154101
C           19.24469255316011       17.98113109430086       20.51173696714032
C           18.68108070447821       17.65904937537603       18.21758547669192
C           20.15254704774871       17.83875947005552       17.85759046801370
C           20.72092581931601       22.39341969173836       24.31652887002245
C           20.15077219606201       21.48116476282181       25.40563347460548
C           18.65452254536735       21.27216263416593       25.17643560608968
C           15.52686721454105       16.22969096486451       21.46125618035231
C           14.94877534042962       15.29076719867133       20.57624279059756
C           15.59066476952770       14.95566596150388       19.38883754357727
C           16.78096738251443       15.57376685663171       19.09217031291488
C           17.35883955482791       16.54281852579074       19.93858028398240
C           16.73088120753647       16.85795009022911       21.13222580112724
F           22.74642395595045       19.41196686935112       16.53323481071043
H            9.46648827203470       17.94974508873889       21.33982638696513
H            8.81432074485884       16.85361132557339       22.57684183998234
H           10.16268644625429       17.92925075322999       22.96197287654053
H           11.57187447999512       16.66024685977106       21.27374192321145
H            8.81223977563830       16.39915928809962       19.74942641038025
H           10.50625285019289       16.34320488716772       19.18316410874801
H            9.45934606589538       14.90365951265945       19.04003912114799
H            9.65865345677807       14.25853013531999       25.61864837859470
H           12.00754815543877       13.65083296517813       26.25419632044619
H           13.83198764971503       14.23028134584824       24.65451173248072
H           11.91620687325816       14.07480313081120       20.57867373065521
H           13.29639814749924       13.58793384029551       19.57724547420012
H           12.56569647778691       12.57881472230567       22.36132955564535
H           12.68878348790659       11.65513645700710       20.86907969791251
H           14.14779223225899       12.28156619323044       21.64307742311859
H           14.43879251586278       16.60733996155446       24.68099930780296
H           15.98806212937181       17.14017351428836       24.01449232590194
H           13.98144779670915       18.68946439393565       25.93513870785388
H           15.64782477804650       19.07667855152730       25.50738897952657
H           14.36389521393325       20.24312078639907       25.18778066126601
H           12.50667046532882       19.60108984565224       23.55792694998915
H           12.73330026260975       18.22737630824183       22.47176474117987
H           12.35132706074667       17.95269394097085       24.17265123094882
H           14.66325194537357       20.38178214545846       22.66318315120803
H           15.09165352379429       18.87826859325442       21.79017354034294
H           18.83202606108958       19.76003287090100       23.61169681984447
H           18.57609411769015       22.54998009561729       22.76930176108367
H           19.74174866684391       20.66850470183991       20.97618318590802
H           21.53751656597897       20.66497988178019       18.96900773077527
H           22.75924417834812       23.58727941617414       18.39549405361992
H           21.00252541226467       24.29810068518933       16.56155042750503
H           22.36407075821691       25.83007795550281       17.89581692755166
H           20.70150200518396       26.41898442545248       17.85281820910646
H           21.30804439792090       25.59601597598352       19.29301694320793
H           18.97830852106412       23.17711076244222       17.57911105109586
H           19.23550126222565       24.12662711431792       19.04550435166404
H           18.82537868854155       24.92893362071944       17.53490779378473
H           25.75640256861685       20.73479655101650       16.45457355644838
H           25.05517375476150       19.67374165556298       17.67348100702225
H           24.70689392993171       17.88407417197139       16.03020166069622
H           26.41382775065727       18.39253109560896       15.96201908494141
H           28.20054233028454       17.32240929624681        8.65538203311964
H           28.63686960231658       18.93716447117063        9.25248900004278
H           27.72996516240057       17.81088423775193       10.28608673622487
H           27.00575432790537       18.04085868832439        6.79168597616261
H           25.74994456500944       19.26675336830739        6.93671000724947
H           27.46273296170811       19.71700475198894        7.13322307466327
H           24.21816431735187       20.01537631525778        8.21138315046169
H           24.02011183679613       18.60047682208912        9.25439047915304
H           23.86282353692565       20.23241646790133        9.92355514511233
H           27.53441864699208       21.06583951143605        9.59053611947509
H           26.30449705790341       21.40578387442046        8.35863635378701
H           25.97119688225545       21.72858098756323       10.06398655586097
H           23.95615854361053       19.66264367640683       12.89149044280318
H           23.21560676876828       18.69177261070791       14.18833194883158
H           22.60294582711163       21.08093921615587       14.44447563471527
H           24.31211799965175       21.53073281847850       14.53102029021965
H           20.45995459346384       22.22479085350131       15.87279601485542
H           21.10433283155392       20.59081896452410       16.05485337022295
H           20.09847969953181       21.26781005123412       17.32428245765474
H           22.45710292480929       19.28603906749471       20.77221990089091
H           21.30239358507105       18.87748434270034       22.03868962158952
H           21.23658505808195       17.28176509144149       20.12912688779715
H           18.70797213556559       18.93897971743669       20.60440914288797
H           19.26726377072635       17.48868820827210       21.48411598919576
H           18.20840803941607       16.99296839116083       17.50062844829964
H           18.18355161944939       18.64179095770486       18.17359939560833
H           20.26697496101460       18.27751117420872       16.86785854244175
H           20.66439619107089       16.86764683257700       17.89173835419506
H           21.80598978502484       22.47362754882526       24.37990177003909
H           20.28042018267643       23.39398603194727       24.37736835303404
H           20.32530459792207       21.92782194010591       26.38236886532560
H           20.66615835570500       20.51960757833501       25.36536261191073
H           18.11814497780340       22.21594495783050       25.29651464893624
H           18.25296120767962       20.55675262941402       25.89410281891253
H           15.18226001601595       14.22109870224784       18.71184112649783
H           17.29953723831959       15.29128793877814       18.18954944862812
H           17.14398364813815       17.58298272340697       21.81300618672176
