151
 energy: -221.326235219452 gnorm: 0.007968110508 xtb: 6.7.1 (edcfbbe)
C           10.13605192733640       15.82469982549925       23.58132056586714
N           11.40167471656252       13.29029261446918       23.87597123381971
O           10.20310836218805       14.45899896259377       21.53723171220245
C           10.98875925801574       15.19491695397289       22.47659095887734
N           13.80592382608450       15.24072128152587       20.60048587029161
O           16.48269229582512       19.21213869006488       23.76647793603769
C            9.39303211415156       15.24736517661993       20.69001543311941
N           18.72799993058340       21.80484554643654       22.89711575155025
O           26.25423374302766       17.29933529056745       14.43325259854253
C           11.95543224841090       14.19548570012285       23.08127464227677
N           19.97812920402895       22.31314661222874       23.25975220346512
O           23.93346175272905       21.80604184475719       18.23437189213811
C           12.16066243438807       12.37641232837637       24.45204958873382
N           21.48784350399176       22.74453775187218       20.00671399554238
O           19.95529004310491       23.95284026381016       18.86062245383340
C           13.53435606346915       12.31460532280798       24.27456283195905
N           22.22962797419568       22.72930462524569       17.09652793645574
O           19.63164304984754       20.92980331251333       18.64933983107520
C           14.12119875301203       13.25540231329357       23.44931337048979
N           24.42654161139396       18.63016559278030       14.63743635967250
O           22.04569718650551       22.93701936560456       22.63133864637626
C           13.33304584800068       14.22360458541206       22.82483220551972
N           26.56331923632502       17.50725185329238        9.37770875419021
O           16.04287204104289       21.31742529349103       23.14325818646165
C           14.00776305231770       15.20084353691779       21.96298485135229
N           17.66985973823243       18.95912266880669       19.21267506494640
C           13.05046088891023       14.27900932941597       19.83623715556292
C           13.89496737755938       13.05111717120723       19.49786815004268
C           14.97451169759709       16.11212378261163       22.32800669631017
C           15.51326221755155       16.37929016362750       23.69740152136934
C           14.84698461413427       17.55010272229866       24.45345674676511
C           15.43744396642391       17.62950282581397       25.86348897795911
C           13.33789917362592       17.32733936126621       24.53728890954963
C           15.08572794619942       18.87707998853974       23.72635297573616
C           16.81860829986507       20.45106645161325       23.48981902325593
C           18.29433436088652       20.70593095583963       23.74820050223458
C           20.94756433848119       22.47368755557659       22.34520070038493
C           20.59785977449917       22.06143143992404       20.91432118894910
C           21.10204040458535       23.55846778606638       19.02170361595929
C           22.23988393031438       23.85781404066300       18.03260136500577
C           22.13171891988281       25.22241829928048       17.34557011987638
C           23.28319271648925       25.40696678136728       16.35983952088565
C           22.17197799886985       26.31382771078514       18.41514422873804
C           23.10628505130527       21.74565067844209       17.32281617357163
C           23.13381090435750       20.51217772128660       16.39511111735530
C           24.15556373725664       19.49920745293596       16.91634418504563
C           24.19113778995535       18.26760492092144       16.01638757597257
C           25.42033885266693       18.05880944811939       13.93458847205697
C           25.42942018019142       18.33386563526493       12.52125136107047
C           25.52358009663865       18.35199802951229       11.32065605609136
C           25.53097336273090       18.43317213387556        9.86265480998656
C           27.88703123380369       17.77522056495997        9.90248244424640
C           26.61160749001818       17.32045239328883        7.94316054864301
C           24.13913257234669       17.96883131789119        9.39943889646539
C           25.74676490216302       19.90510531708733        9.45562880491233
C           23.48433478718076       19.57819353404122       14.09348114728101
C           23.46474492971833       20.85533824746584       14.94068876192607
C           21.12326789646975       22.71080975037889       16.16293249197447
C           20.76625164283307       20.54012885562991       20.74297748876793
C           19.85930775121036       19.95283412491462       19.64705661216940
C           18.54251961478276       19.44786976774065       20.25921864738018
C           17.41505498348956       20.01744117870039       18.25513720280894
C           18.74832654192116       20.45545017555216       17.65430586810928
C           20.17859969194853       22.67676557978351       24.65583943904807
C           19.86397292604984       21.47302023008628       25.53927368888302
C           18.43790504441858       21.01020337363782       25.25354430759542
C           15.41324704007833       16.73523189950802       21.12336358035052
C           14.68118805628994       16.14902766528192       20.06669106035872
C           14.94132301192816       16.50939185622700       18.74908035332126
C           15.91715861924445       17.44788176271887       18.50705095842154
C           16.64367967830744       18.06789930207937       19.54543035429111
C           16.38071612310323       17.70366118430907       20.85545052046514
F           21.87212203883206       19.89471540600922       16.44419250461758
H            9.49730014112011       15.05716570397841       24.00905050160492
H           10.78245167034148       16.22274228721206       24.35620547151785
H            9.52527452545029       16.63426954723346       23.19111662462000
H           11.54973276283047       15.97701553252697       21.93975088514141
H            8.76745458813111       15.94088196767182       21.25403084694290
H           10.00683386438748       15.80965663278575       19.97732841970520
H            8.75258187106153       14.54832986400635       20.15613673952392
H           11.63855080110284       11.67154791509462       25.08589418634381
H           14.12319096653298       11.55495202952457       24.76329933718253
H           15.18612711685842       13.24286032474626       23.26684416831077
H           12.17252518032066       13.97358152503835       20.40879522154217
H           12.71474862468447       14.76705883251553       18.91809663043415
H           13.31989392794910       12.36308822815085       18.88626890819652
H           14.79018786144662       13.34581001228312       18.95498768827470
H           14.19444612508285       12.54020388997965       20.41005689105537
H           15.39147727197434       15.48434833896647       24.30999482197766
H           16.57969683707434       16.59333592010649       23.61101160808075
H           16.51603005040807       17.75206107584627       25.81668064076730
H           15.01460277602944       18.47135071898176       26.40567959357407
H           15.21571882712346       16.71906166885020       26.41319441969216
H           13.13531080823526       16.35389895721173       24.97623864270964
H           12.86843654413341       18.09292402881993       25.14874163135294
H           12.89816673168443       17.35616801468037       23.54372011852335
H           14.52869098562039       19.69046832519454       24.20198790532542
H           14.77120968337346       18.81260169177764       22.68142587847089
H           18.87551345894652       19.81415858626934       23.49564708061817
H           18.01944668303933       22.53523751113404       22.91815845655046
H           19.57943994380619       22.37114672957219       20.67119429125846
H           22.46716365813013       22.51541728095425       20.09972715343176
H           23.19636818385826       23.81006169518634       18.56267214521978
H           21.17341380215186       25.29081773689449       16.82583541571541
H           23.28003598735416       24.63706749917232       15.59348538809365
H           23.20870971593906       26.37698902042068       15.87706115697791
H           24.23369687382148       25.35554594385874       16.88637630208774
H           21.34427201648914       26.19307082228416       19.10792672350659
H           23.10257961843498       26.26512603900541       18.97635093359086
H           22.09727606782149       27.29253098489921       17.95049317145165
H           25.12958349843893       19.98562172729259       16.95256271713275
H           23.88998302881055       19.20477245232688       17.93166280102534
H           23.22941379690491       17.74585175138340       16.08201984792978
H           24.98740890552897       17.58948376964268       16.32577986662398
H           27.83226623134114       17.93602954199729       10.97770136565309
H           28.51171365285815       16.90133497439533        9.71899383141674
H           28.37047164613293       18.64573030071685        9.43322336872556
H           27.33017289153090       16.52793953548913        7.73695052627779
H           25.64282179998635       17.00077567970721        7.57164414333597
H           26.93325584836690       18.21900049492555        7.39432707577147
H           23.37430034058391       18.48563051544654        9.97059027764188
H           23.99030153748836       18.18725181124485        8.34897559106497
H           24.03611818388574       16.90215943319900        9.56598037993606
H           25.81793900678776       19.98056267692615        8.37261265802620
H           24.90723134203085       20.50658843413670        9.79327197841529
H           26.65751085518809       20.29868394198694        9.90099614638877
H           23.76920149442146       19.81347908173903       13.06771934251804
H           22.48377418930896       19.13151913074260       14.09537285512775
H           22.73400171804184       21.54308684358103       14.52294768894266
H           24.44527190858738       21.33310388798752       14.92918152318506
H           20.89488886555989       21.70391096450708       15.83704428671121
H           20.24510552310388       23.10166054588487       16.67526261482155
H           21.33876540477468       23.34366096301258       15.30192631899473
H           21.81372696814808       20.35276405253802       20.49866030474472
H           20.54133342856596       20.03668478947144       21.68194141706371
H           20.36197191325867       19.09100367350491       19.17490971323141
H           18.07848835761954       20.26723818876377       20.83255196954766
H           18.78919510843141       18.62451793417688       20.92931762221638
H           16.75234699351302       19.67378955822963       17.46645776114025
H           16.95466942657602       20.88514617927594       18.75388309188530
H           18.59972612837200       21.28808556499778       16.96690561344914
H           19.20939226459317       19.60816756001422       17.12479466986452
H           21.21488333853686       22.99767082802054       24.75614423935727
H           19.51542167615343       23.51313864110205       24.90302368441752
H           19.96808805468842       21.75050466919285       26.58689756252247
H           20.56687437575319       20.66853647828552       25.31941773636711
H           17.73227283968108       21.79945988795721       25.52468198679532
H           18.19533125503452       20.11606295306713       25.82625100213546
H           14.41387400162113       16.05410881998287       17.92518267023250
H           16.15342794381226       17.69586539225542       17.48491954694684
H           16.92102161132856       18.14554130144547       21.67402949648455
