151
 energy: -221.330669305318 gnorm: 0.008524123212 xtb: 6.7.1 (edcfbbe)
C           10.25436313462833       15.91422604759546       23.79174403455864
N           11.85934844907558       13.60279822844979       24.09674463589573
O           10.44472415140277       14.60115254072417       21.71578040422996
C           11.14943064990515       15.40092422438054       22.66337704531295
N           13.63231166005616       15.75272776746272       20.56181262910924
O           16.65211599913496       19.67261830432866       23.72870976487608
C            9.51344302172518       15.30314268930474       20.92133854129581
N           18.98109566096697       21.88010321042981       23.35791663908740
O           26.48062452835689       16.82428995119628       14.49491959890485
C           12.24715241565303       14.50632740841860       23.20852378455094
N           20.36742666651231       22.09110350750215       23.35127135442299
O           23.60075360557484       20.77620616965502       17.98275204511929
C           12.74696977362587       12.76842567661828       24.60608776987027
N           21.16437150595317       21.96951036560447       19.82378296850341
O           19.62163367205377       23.02218662263768       18.55072639879210
C           14.08677394030155       12.77838814401738       24.25065306594660
N           21.84872647361857       21.58642533057003       16.83724053931571
O           19.56024639828001       19.64351597361967       18.62975503214874
C           14.50236099543449       13.72012477355427       23.32817933792579
N           24.35110926775316       17.61554476677451       14.49796146793935
O           22.30459258767292       22.14444104750903       22.21635699562210
C           13.58013059051198       14.61685589983181       22.78561563896668
N           27.25039750309139       19.68824721612320       10.04199657370687
O           16.40178327124942       21.55778265903365       24.92829805053382
C           14.06143647188433       15.65181875859956       21.86712418747661
N           16.73151601447450       20.03788893973978       18.88995963553981
C           12.96759554659759       14.71255476042784       19.81585935983801
C           13.98448963620852       13.78294122273751       19.15511950831630
C           14.97341786076267       16.64628889965393       22.14962154981290
C           15.67041573857522       16.88535547512559       23.44988676580569
C           15.03078342853940       17.95849253070593       24.36069360390950
C           15.68207242943996       17.87574874877984       25.74436895469076
C           13.52543738856122       17.72930003316042       24.48782838142072
C           15.24880236217049       19.36465869772056       23.78020279206805
C           17.09456661992242       20.73905631278892       24.36089949927248
C           18.61663646278449       20.82912882291589       24.31546119432840
C           21.08951289604130       21.98613630582872       22.22645324018027
C           20.31870578229148       21.64792327835100       20.94952128429206
C           20.76655312954308       22.62316377065903       18.73043449507467
C           21.87906796053299       22.78160297196391       17.68367189379403
C           21.77526099020941       24.08618506626145       16.88123596497399
C           22.88915160877438       24.15593574281979       15.83802004363329
C           21.88781994161887       25.26861704205479       17.84256650047805
C           22.76516275374118       20.64470115855492       17.08849383857436
C           22.84528465757112       19.38673580744813       16.19554241091286
C           23.91021569820480       18.43941902707659       16.75360099473252
C           24.08974209867200       17.21190485062284       15.86082528229530
C           25.56181497311148       17.42870088756356       13.93740089397837
C           25.70068667259752       17.96085948754379       12.60589348394371
C           25.92522028195324       18.37449591682206       11.49758720295834
C           26.03450482541155       18.87552433552362       10.12902862251697
C           27.26674556395387       20.81557945206858       10.95235712676151
C           27.63076716581734       20.09959258061553        8.70733626154596
C           26.14438629992307       17.63647827251488        9.22515085371516
C           24.72870150306343       19.63509230914795        9.80258630007658
C           23.30709895553170       18.43205685602766       13.92832659894403
C           23.15432760312856       19.72548728973123       14.73472502273666
C           20.72534027232985       21.49754623726242       15.92912783824100
C           19.95896805376535       20.15396191822675       20.96377009503756
C           18.94332866183302       19.71290306866821       19.91203783869457
C           17.68722900929723       20.59879967148496       19.82918455820398
C           17.38004754439525       19.96156098241004       17.58888817216939
C           18.64820995454612       19.10629818797914       17.69012190904426
C           20.97968344763393       22.42692031424097       24.62837044290555
C           20.66841466873977       21.33615208071678       25.64999382796242
C           19.15868281389689       21.11628428171338       25.72359197316813
C           15.14001523862114       17.39245307840696       20.94500831387135
C           14.29527662409857       16.80148679106278       19.98028953107308
C           14.22889220356272       17.31897273355098       18.69244830342524
C           15.03407245539499       18.38734144973646       18.37724324976346
C           15.94662531091322       18.94963098666192       19.29777439050829
C           15.97293159603501       18.45547136662690       20.59444991903260
F           21.61345617781251       18.71031027140960       16.24023386114044
H           10.86350036268941       16.43346503771558       24.52550992267032
H            9.51004040381537       16.60482160946361       23.40547494337443
H            9.76098267697465       15.07177088439569       24.26791687115551
H           11.60254877332197       16.25647652409942       22.13446444622774
H            9.97961487231129       16.18141555071774       20.45952357227334
H            9.19892979951378       14.60381331964148       20.14887729670876
H            8.64126680025491       15.61826511536432       21.50051069506083
H           12.36135887602950       12.06455307170962       25.33111496679784
H           14.78022545644211       12.07450119102498       24.68191812928514
H           15.53344779589748       13.76403280210541       23.00922144328956
H           12.32276876887643       14.14768125107640       20.49161263593185
H           12.34178076905031       15.18325916319556       19.05338186764683
H           13.47003544650512       13.02872142737014       18.57169502228726
H           14.64883085156610       14.35254526394305       18.50560981836078
H           14.58977759455413       13.28899760563140       19.91140653285806
H           15.69353749606412       15.95238506815607       24.01527942223453
H           16.70100814132102       17.18621374321116       23.24694608351136
H           15.40716709313151       16.94440529938895       26.23185659705050
H           16.76632814655892       17.91397010967740       25.66069090833478
H           15.35523403262549       18.70244328033596       26.37166231807971
H           13.33360531142262       16.70825390008695       24.80868153303649
H           13.09665932328481       18.41096770115849       25.21752586804536
H           13.03298864920819       17.88750607205098       23.53210182876442
H           14.75347646038532       20.11555655323218       24.40072627978324
H           14.86488310000188       19.42208890460467       22.76069658963707
H           19.01363075381056       19.87948768142988       23.94320606411201
H           18.51251845188776       22.74490846585574       23.63732407114005
H           19.41917900159942       22.26315074429698       20.89255822567251
H           22.12822045887799       21.67188822550975       19.90894571322484
H           22.84580950792469       22.76718926112105       18.19692316087887
H           20.79700608711688       24.13243603123864       16.39541189462287
H           23.85894297902859       24.08696182451279       16.32719030935312
H           22.81750026341019       23.34721364322288       15.11607331795082
H           22.83814892868198       25.10055466547835       15.30373017180169
H           21.06962087553555       25.26198357840655       18.55590538920173
H           22.82565337877186       25.22800289766622       18.38981458495237
H           21.85365536809907       26.20037151579643       17.28936305063267
H           24.84612143821041       18.99359247566085       16.82891150850862
H           23.62208398019537       18.13117181793718       17.75860049463475
H           23.18004335409495       16.60312725575166       15.87984036941559
H           24.93456799886530       16.61435115964346       16.20743622601089
H           28.29363416542444       21.17108926968995       11.04033204588140
H           26.64072071577960       21.65533656948731       10.61220854661529
H           26.92847005077717       20.49622207598092       11.93735352539930
H           27.77481520650344       19.23045161747352        8.07201358983854
H           26.90355557871479       20.77802167631283        8.23464002197897
H           28.58186527275344       20.62614074159555        8.78053864126978
H           25.39763925832570       16.90484703404206        9.52416757704174
H           25.96983027933456       17.90248748666439        8.18704022872267
H           27.12869293835857       17.18945959001287        9.33014110501655
H           24.55592605109868       20.43361978555338       10.51927559493326
H           24.78594234528358       20.05932133845829        8.80316483248789
H           23.88908774856791       18.94604576378874        9.83911711451808
H           23.54692698140552       18.65747583478464       12.88909887909983
H           22.36894274298025       17.86893211530443       13.96914084120131
H           22.35907273122245       20.32662569136527       14.29985419498269
H           24.08384359549235       20.29543096228069       14.70945978672598
H           20.51834584034286       20.47110815964428       15.65582209879170
H           19.84729575903184       21.89559252953424       16.43693281824661
H           20.90702772337432       22.09021450447052       15.03186405720594
H           20.87572508113799       19.58109744998829       20.81256420116714
H           19.54306859825115       19.90682471746794       21.93523404599611
H           18.62448156841698       18.68797295374585       20.17404868886057
H           17.97262840086782       21.57864567061893       19.43583013892041
H           17.23470714494304       20.73143758867137       20.81027888214120
H           16.71581845107671       19.54128363414922       16.83921096269908
H           17.64933429115559       20.98028605528920       17.29614174891611
H           19.17800884671887       19.05316275019104       16.74201883964482
H           18.36722794797960       18.08630910693970       18.00032001809247
H           22.05164367062289       22.52439252828055       24.45654231180345
H           20.57775625675842       23.38879035813970       24.96482417876644
H           21.05315652053562       21.63268819193385       26.62457110506457
H           21.16247872020234       20.41021022844647       25.35055290646665
H           18.65946040534156       22.00664374672267       26.11266353365433
H           18.92566784323381       20.28103217348023       26.38408032089623
H           13.56116142442915       16.90711844711978       17.95183364893163
H           14.95522731621910       18.81255021600532       17.38978209839352
H           16.63727742241310       18.85415518642214       21.33996343567610
