151
 energy: -221.316360670845 gnorm: 0.005003572083 xtb: 6.7.1 (edcfbbe)
C           10.10636707396888       16.18359265155977       20.84513378847527
N           10.73397418060398       14.11058884232009       22.62948256445388
O           11.17328716563321       14.25370394073389       19.73963123055597
C           11.35956673714237       15.32759774400425       20.66093331933865
N           14.72760624511517       14.76756449619862       20.62101934844682
O           15.82389531345461       19.92738235589558       23.02292839731650
C           10.76325886846320       14.63548502051869       18.44243649679180
N           18.38513791193918       22.24819227610651       22.11121583270138
O           26.94087265407121       18.30549403493745       13.19632104211933
C           11.74204264928966       14.67053767876583       21.97393418933455
N           19.34686346671055       23.03611178888028       22.75031040833958
O           25.38957141580254       22.38732573614656       17.74769836436802
C           10.96109174470442       13.49945577035078       23.77682075078026
N           22.08906578679280       22.06508757161457       20.69185987353962
O           21.18227881768010       24.03410367405106       20.11684087337633
C           12.22075768489852       13.40734597934028       24.34808955231649
N           23.16625222228479       22.22003827854002       18.03064476790262
O           21.85898076250017       19.22154437521621       20.38336106219744
C           13.27593232414558       13.99332339383644       23.67648050575707
N           25.14956963037330       18.76997281559516       14.51501850544800
O           21.52946332280940       23.51949218554821       23.04676046736142
C           13.05551114537004       14.64497884900094       22.46061757012625
N           23.74303345383960       17.76288897279361        9.02075903661364
O           16.13747601255775       21.11195507779636       21.14902009321285
C           14.21911216006250       15.25388078017649       21.80385693445363
N           19.47593991973762       17.64179084178295       20.44619655377280
C           14.30158687640375       13.56522891154731       19.95000180312160
C           14.92762168497886       12.32207206824910       20.58223906922316
C           15.02984616716226       16.25469183935655       22.29655678928909
C           14.85075230458020       17.04212908943605       23.55533042351733
C           14.01385870068362       18.33426474725444       23.41778767048140
C           13.89010025703093       18.98827759545699       24.79595438738066
C           12.62025141727623       18.01124645645798       22.87974903438543
C           14.66926779792279       19.30972225931477       22.43417940295829
C           16.44466658933231       20.82978476010705       22.28643342491979
C           17.55283972808942       21.52309012966271       23.05980004165393
C           20.65534538890102       22.86242551054001       22.49714724271701
C           20.95943803176635       21.71794936835705       21.52719985951584
C           22.07065553054551       23.20065954170281       19.98186784869177
C           23.23925507191330       23.32263403148026       18.99537646148200
C           23.38501188125999       24.70184889912963       18.31736910974321
C           23.62589373237880       25.76863082643790       19.38423357455276
C           22.19925573510075       25.07156739882459       17.43038595390043
C           24.33270564129971       21.80630534669611       17.51167422480459
C           24.36949354331944       20.50275252354127       16.68113392049778
C           25.82002978340539       20.04384346131892       16.50912865179398
C           25.89202811447855       18.71518230135584       15.75391143261935
C           25.74224842790222       18.56055643874813       13.32573252278651
C           24.84814959014722       18.61316284151833       12.19665708778754
C           24.15316491915582       18.57903824546427       11.21441373486848
C           23.20751023468031       18.59685953486821       10.10350559761857
C           25.11489426650255       18.05695025219598        8.66209321016880
C           22.91353867775318       17.69222346311532        7.83598616988984
C           21.89869678464255       17.98368567136655       10.63537410489710
C           22.96926088444977       20.07473059198485        9.72618751952662
C           23.77175186786985       19.16627148999766       14.67208794009971
C           23.70102683845188       20.55753067500349       15.30757670703781
C           21.85666287266661       21.74018405049914       17.62625939860436
C           21.24283310855226       20.45594458167826       22.34350029711716
C           21.05903057704007       19.16057604564806       21.54997522228444
C           19.58923419838744       18.88007636278686       21.19976826072719
C           20.32996094865341       17.68298813632007       19.27228952810654
C           21.76762365862049       17.99975570669881       19.68616285056459
C           18.85723089241663       23.99498139060486       23.72562200502083
C           18.05597000258347       23.24956630283583       24.79391009439462
C           16.93724672912833       22.44766377483194       24.12848488731722
C           16.12182566120160       16.37460739259741       21.38411586317608
C           15.90439628106465       15.42073557010472       20.36578228811622
C           16.82876923554154       15.27608561789439       19.34212900123861
C           17.96471636478783       16.05295866405583       19.36503099602881
C           18.23851271360520       16.98528562546453       20.39107211494989
C           17.28147666084488       17.15086643900683       21.38617980499445
F           23.71274140264364       19.52640641652539       17.45616207593187
H            9.89158687735579       16.75450455783982       19.94639229829532
H            9.26702178261683       15.53625228327043       21.08103941678509
H           10.26120265315883       16.87224318651239       21.66928634994215
H           12.19246311750693       15.95655307546460       20.30150021088650
H           10.87605007535721       13.74672186772328       17.82496176212043
H            9.71736084994677       14.95356585856391       18.42984949565454
H           11.39647214610674       15.43938169407155       18.05053328059572
H           10.08991827548163       13.06740100615458       24.25160197182804
H           12.36437321485965       12.88937643334689       25.28263531415896
H           14.28018379042125       13.94268798394389       24.07139868099358
H           13.21296233533761       13.49226695223077       19.99374895593761
H           14.60088005319736       13.64240785185808       18.90246556385973
H           14.58125007312309       12.20797617498135       21.60712180836858
H           14.64342408385568       11.43833702489579       20.01932816554759
H           16.01223100924309       12.40577806566367       20.58812454008039
H           14.36271232254158       16.41776086030084       24.30576737647552
H           15.83807773583934       17.31708010421399       23.93058223555381
H           13.32577862328087       18.34177205962346       25.46276659104220
H           14.87266319327343       19.16002283606123       25.22568121318819
H           13.37318080699817       19.94138971720042       24.72036770935744
H           12.68470043496459       17.65026997275189       21.85738549957043
H           12.15210776887713       17.24211619784197       23.48873617740738
H           11.99117361149714       18.89769074896292       22.89558179611526
H           13.96811005797954       20.10498914492705       22.15879110827036
H           14.97498650010611       18.79680670640226       21.51704644133705
H           18.17222993660949       20.76572786442534       23.55103531147844
H           17.79374293204231       22.82312075774373       21.50925176989760
H           20.07280988580553       21.58046665366637       20.89909796610699
H           22.74660795868163       21.32673630182137       20.48583938946602
H           24.16391546353892       23.16413202889788       19.56774972745091
H           24.28349179620642       24.63378259225839       17.69220535712671
H           24.49430436151414       25.51596846899455       19.98865054494992
H           23.80132852978039       26.73283742258450       18.91533202890795
H           22.76117151551631       25.85006899571813       20.03761027205472
H           22.34456422601963       26.07411437482386       17.03581843926993
H           22.11226401606431       24.38764662918318       16.59144733934745
H           21.27990341817734       25.05735656407041       18.00706752263892
H           26.36224283304549       20.82476939484409       15.97764918905409
H           26.27925548379454       19.92702129255311       17.49077967064657
H           25.46895874940946       17.92091710518482       16.37857795395357
H           26.92848380565898       18.47031771968215       15.51660440689414
H           25.73537821394039       18.07842827087887        9.55600322081588
H           25.47594146226772       17.26072137706786        8.01177926905528
H           25.22972153014491       19.01324988624604        8.12795050428773
H           23.30395062111442       16.89510579257649        7.20381703237088
H           21.89218592981072       17.44139608961553        8.10451902636102
H           22.91630654350646       18.62264637669687        7.24832606153394
H           21.07504964049363       18.17677514982485        9.95475777371728
H           22.02222004395320       16.91191923690695       10.75786701173577
H           21.65350468756827       18.42332343393231       11.59862756301863
H           23.89900188358688       20.54882201091511        9.42255154766589
H           22.25219301764897       20.13834322779529        8.91305107305893
H           22.57285963943153       20.61060578905784       10.58374912622572
H           23.28325030749284       19.16760998690782       13.69899951076709
H           23.27007122441557       18.44446575236377       15.32457417707373
H           22.66156435667918       20.86001882153055       15.37194212493305
H           24.24610196563430       21.27762604624499       14.69759920578162
H           21.10598438604178       22.16300774319047       18.28658545510709
H           21.61838184115631       22.06865050594329       16.61436026170987
H           21.80032712538410       20.65630362350696       17.69541094350420
H           22.26821146984199       20.51296598636029       22.71031912839634
H           20.57759528127896       20.42910662113745       23.20548723348373
H           21.41380615577789       18.31935126434869       22.17006625862249
H           19.16675810234425       19.72100146360468       20.62879491201447
H           19.04888271965098       18.79227724495222       22.13810944410589
H           20.35070747651909       16.71182021393228       18.78442034983277
H           19.97766710236269       18.44250409665204       18.55586790045820
H           22.40585510355998       18.09957849227142       18.81007824938291
H           22.14576722684222       17.18765970697479       20.32363899357454
H           19.72584223143018       24.50096374405971       24.14639504178730
H           18.22515672892012       24.72870524747106       23.21402452784774
H           17.63886016458006       23.96363297765618       25.50188537869958
H           18.72279033806265       22.57502579923231       25.33325914907262
H           16.23100723457380       23.12912551370188       23.64807312661194
H           16.39837649397136       21.84812277468286       24.86068997564398
H           16.68256930574837       14.56724778217252       18.54140055995191
H           18.66102796507226       15.91465703844173       18.55496540596644
H           17.41382372731553       17.85358690019983       22.19188248351134
