151
 energy: -221.324268522907 gnorm: 0.005014128043 xtb: 6.7.1 (edcfbbe)
C            9.77783470708533       17.31021334749121       21.27515833280351
N            9.90961477402587       15.44777319433778       23.43803680774153
O           10.30744162857270       15.05230867277496       20.43956544329991
C           10.74199269389191       16.12653773719963       21.28179631083310
N           13.78104261560761       14.80649128304336       21.22885128241812
O           16.19097729859306       19.69856551823830       22.99834303301655
C            8.98342368775231       14.59135567472813       20.63908257194780
N           18.93221564884952       21.67756285054128       22.32890749195255
O           27.93707252989504       18.64981566006531       13.48439170062061
C           10.99262096579206       15.61081929373075       22.68803150129849
N           20.21417152149598       21.97557027761180       22.80241770263327
O           25.09327958084181       21.69729595294755       17.55031580843206
C           10.02615636912409       14.95775320844493       24.65993521072013
N           21.83601635117562       21.06953155859556       19.82330376194474
O           21.18849647922050       23.20583866677437       20.02802530090632
C           11.24284601563477       14.59812918008143       25.21494583327505
N           22.86377759247462       21.45776901270292       17.36620947747675
O           20.99885572567415       18.46125937290990       19.12619177364710
C           12.38018311720834       14.77212323189709       24.44667270421420
N           25.80827441660343       18.38553390799203       14.24019636775897
O           22.44379797750198       21.85648177037517       22.50861683423876
C           12.27677544000467       15.28654661705898       23.15494557489496
N           26.03696103095164       20.39601232690945        8.77628864634744
O           16.13338658181452       21.83592836533364       22.31843421309294
C           13.50217093603993       15.50822337966007       22.37861627230711
N           18.66753135304015       17.03671435848170       19.88548174435716
C           13.09322624742805       13.62289255494304       20.77939790818525
C           13.55588968667274       12.38620323764404       21.54827995626326
C           14.51849487258217       16.39926611602896       22.65411021105227
C           14.65778764035645       17.27699155915170       23.85858338469461
C           14.08661739761581       18.70578931561831       23.73766295083708
C           14.26450764917715       19.42281484193626       25.07866124620713
C           12.60521099883421       18.66240195046531       23.36931468848747
C           14.81741554705408       19.48561862061545       22.63761181940230
C           16.71093719794478       20.89120855879601       22.81295535999946
C           18.13541667866404       20.98055242722716       23.33475228215674
C           21.30981959904159       21.56637918664556       22.14438894411688
C           21.04921530407510       20.63602554508007       20.95728517242422
C           21.82131144568560       22.34552657293053       19.42452172324659
C           22.67702177854361       22.64748329381109       18.19101265659899
C           22.22929683095215       23.88122522767354       17.36624773257888
C           22.73970605232706       25.14949980300621       18.05113964738092
C           20.72176204738431       23.99188594327859       17.14123535234542
C           24.12448688813363       21.06285380830467       17.13252596324504
C           24.38717288062708       19.76960338134905       16.32827511089718
C           25.86210289377635       19.37905806372179       16.46761724850625
C           26.20416632695648       18.15788090715278       15.61141756218500
C           26.71909908330542       18.69886099823623       13.29670025458061
C           26.15340916616077       19.07376754513957       12.02631623948768
C           25.74446665104771       19.45441237706950       10.95917316402478
C           25.05969099090926       19.89524736323586        9.74944843710261
C           27.07485075736232       21.22949440089836        9.34436516026936
C           25.45198472961761       21.02086558957882        7.60766577650334
C           24.35135544182532       18.65546697639059        9.17275824253213
C           24.00958798447775       20.93645129455110       10.19832175322275
C           24.39262496300802       18.62624428171696       14.09960209805694
C           24.00883869799960       19.90491315173873       14.85110630448668
C           21.66419276203829       20.85981573748700       16.81114192797993
C           21.42094529788115       19.20802061599838       21.36363714520917
C           20.76399324255123       18.13858276635708       20.48529758966422
C           19.26237518854211       17.99578733006248       20.79302996750333
C           18.89844046604655       17.44117584703688       18.50953378509890
C           20.40467514891229       17.50259744270997       18.27575377342418
C           20.28513645090667       22.76629354178674       24.01793018814760
C           19.54141583484340       22.02462310400200       25.12868476367286
C           18.11041096349061       21.72965410574469       24.68049375939840
C           15.47699805503751       16.24794691934560       21.60707677605244
C           14.99352967235345       15.22737407253217       20.75743307455232
C           15.73718218691637       14.80485562094311       19.66153178354988
C           16.93540207491999       15.42777491093861       19.41117935067223
C           17.41907859699302       16.48410569149566       20.21201299582685
C           16.68927372348936       16.88222326733282       21.32040805091578
F           23.62626551504658       18.73318840640254       16.89458884404698
H            9.51339255718343       17.55622340317067       20.24989023023533
H            8.88290024741326       17.06439028979749       21.83804549823079
H           10.25347035298826       18.17036377990238       21.73507627709132
H           11.69664788020917       16.41810511028265       20.82894948667821
H            8.92673519056680       13.63541546520856       20.12188467290296
H            8.76855676901562       14.45292001276446       21.70134100886145
H            8.25622415229357       15.28268628580220       20.20565204409097
H            9.09949861998217       14.85304074976794       25.20776954430847
H           11.29681423381224       14.19412411437519       26.21263058600642
H           13.35219336294433       14.50004758647099       24.83201536402941
H           12.01829913410996       13.76474125218875       20.90052222134069
H           13.29675000644349       13.50119675543674       19.71408975560951
H           13.31543683396642       12.48644977260402       22.60446868103848
H           13.05891977124831       11.50152039180882       21.16070709482736
H           14.63161587407873       12.25943737781150       21.44717321025357
H           14.15847041224649       16.79974639312793       24.70364622864555
H           15.72061887832005       17.35963358145186       24.09391708290167
H           13.68047564845063       18.92701347067798       25.84904645817246
H           15.30955696026001       19.41652004685544       25.37966560229424
H           13.93192123690514       20.45610877925933       25.00516722134879
H           12.18554358452706       19.66537531492855       23.35600164862766
H           12.47806492263786       18.21627868723612       22.38748257589070
H           12.05470140831338       18.06753424932092       24.09343619725266
H           14.34981882073400       20.46203862196005       22.47792980135197
H           14.80571567984677       18.92382623349873       21.70031706040170
H           18.54911108769535       19.97594067009324       23.46276468117549
H           18.45188286390937       22.54238008212894       22.06681116847308
H           19.98768730084237       20.71253744875755       20.70302363967870
H           22.38072079625619       20.36752018506144       19.34549182119704
H           23.67510751105472       22.88397279236673       18.58747785259608
H           22.72869278990247       23.79369182882727       16.39405379125190
H           23.82307705355507       25.13228301768883       18.13415945967154
H           22.45137285969249       26.02752497742130       17.48023167220043
H           22.31310668560825       25.22484279029743       19.04672756586055
H           20.33575691843656       23.18407250306317       16.52940559149517
H           20.20127481601999       23.99569165878324       18.09568171805519
H           20.50665772397193       24.93068912829276       16.63644957041179
H           26.46745770438526       20.23363101433227       16.16473168820766
H           26.07820841124156       19.17161869417199       17.51575844073882
H           25.67276261179803       17.27889958973089       15.98609476014029
H           27.27870929562768       17.97331170835981       15.63488974918176
H           27.61602516798985       20.67471223021802       10.11149534969849
H           27.77577874526647       21.49452665535316        8.55182616721796
H           26.69579425857287       22.16544012925097        9.79000317208442
H           26.23464454662178       21.12976232454794        6.85781408902862
H           24.67466924262725       20.38540973391672        7.19390571901475
H           25.03406171843330       22.01741958259336        7.81135192086367
H           23.64020533074007       18.93894176488778        8.40336841690555
H           25.09037213035732       17.98386919891798        8.74613639101124
H           23.81562476648737       18.13572352514965        9.96242849919747
H           24.49736041395436       21.81785399498322       10.60882473044285
H           23.38993651609165       21.23074767461047        9.35620070567316
H           23.37313996706264       20.50601218930201       10.96635935150978
H           24.13896155503236       18.71623728008537       13.04458301712821
H           23.85767859061409       17.77544726170223       14.53113915367115
H           22.94264953321155       20.07795573498251       14.73701016258661
H           24.55537211469586       20.75478969544587       14.44081917399925
H           21.75598537829755       19.78136719544282       16.74987081639661
H           20.83273739110674       21.08495855387450       17.47297558862703
H           21.45302660988029       21.27643335675518       15.82503665600825
H           22.50628996199393       19.11372028307250       21.31410567800972
H           21.11830714959926       19.03902265535347       22.39691398894166
H           21.23673047601881       17.16422486476581       20.69772509225771
H           18.77211905817178       18.98069994256567       20.71954950242250
H           19.16645000506367       17.62396850020462       21.81330351377325
H           18.44645557904866       16.73201189741094       17.82118333625411
H           18.46835316043033       18.43951349580897       18.32224586053440
H           20.63267236230433       17.81323876487738       17.25671319991508
H           20.84618532126808       16.51467814430952       18.46614106115576
H           21.34010692814326       22.90280727247896       24.25451382429059
H           19.82759521339202       23.74396652218123       23.83251899176172
H           19.53218300618120       22.63347309439473       26.03122237672248
H           20.06140431158184       21.09023083945051       25.34478280863711
H           17.56268314003689       22.66552923115945       24.54517610518749
H           17.59035543355051       21.12880008381529       25.42578933370361
H           15.39971523745543       14.00302316361428       19.02326142210010
H           17.53410572907130       15.08049078932807       18.58410028975724
H           17.02678033283319       17.67672886395736       21.96420698187730
