151
 energy: -221.310822166429 gnorm: 0.007710141205 xtb: 6.7.1 (edcfbbe)
C            9.73131653863238       17.52679071989599       22.55513581331920
N           10.18387384556382       15.26601040348134       24.19097408668301
O            9.85181246717616       15.42259526618319       21.28632514059541
C           10.58615913214778       16.34916305235198       22.08525791482434
N           13.43367523318684       14.98156734965601       21.10934286114288
O           16.63606390168718       19.40144168690418       23.11833230797455
C            9.46682335491987       15.90333115902687       20.01675608777483
N           19.13688310927092       21.75652304446412       22.97580853386842
O           27.68872646094325       18.85839510595482       14.70975897068307
C           11.09395162622738       15.55129643413849       23.27133768111539
N           20.52912618875879       21.74442299131644       22.89213877825628
O           23.82856085845411       22.55028705680087       17.59651485429526
C           10.53010066207039       14.56436235624103       25.25434690735144
N           20.80386266740236       21.33659655134229       19.41234872647727
O           20.57776108748922       23.37757709145098       20.28284874474321
C           11.81944981862335       14.10236329061185       25.46827902485267
N           21.67577729550133       22.18546095762997       17.03575203558800
O           20.36021785826133       18.77889352237090       18.35265987216771
C           12.77646063341895       14.39497066510345       24.51490734635513
N           25.44512837286081       19.20492963878707       14.73655943091237
O           22.48264291926714       21.45793058812333       21.81259668965408
C           12.42819836803048       15.13193906726493       23.38254475071686
N           26.47382563455155       18.69318790894344        9.44350393426567
O           16.44921227755229       21.49981286640383       23.89583781098174
C           13.46987423399887       15.45534987412255       22.40267642398128
N           18.18904176159619       17.14271139731679       19.22321686484382
C           12.56554395712477       13.94113969214537       20.61569846631013
C           13.14835530598203       12.55480247301207       20.88677865410436
C           14.59646424717602       16.22572062499020       22.59766156284605
C           15.06882167110860       16.86522236864032       23.86622101441536
C           14.63112152254969       18.32763827669443       24.09957028080762
C           15.11883380780136       18.77221549131259       25.48086382266446
C           13.10887741967816       18.44167775931259       24.03067813459976
C           15.20948592306625       19.25713259217414       23.02084972977878
C           17.12093513840021       20.54844586512579       23.56975592264059
C           18.64031667139965       20.52980482272663       23.59585881182399
C           21.25666675921555       21.35921041291132       21.83331788860244
C           20.52293415649174       20.67224008567240       20.66739264396729
C           20.85275070765225       22.66914230794736       19.31925666737206
C           21.28640278285348       23.24740823324495       17.96461731301077
C           20.28602303000588       24.25525297668079       17.35793027753971
C           20.83947803303982       24.79966052014789       16.03832145256476
C           20.03701839024374       25.42835090062705       18.30362446940934
C           22.98029864585765       21.86412882121116       17.02571508903543
C           23.45961144402726       20.60867777801412       16.27299928325809
C           24.76460625238950       20.11006020539766       16.90194232426982
C           25.30336166408208       18.89952097474087       16.14162851231161
C           26.64708705542057       19.17458514208624       14.13361014808768
C           26.62434318106031       19.49004076205861       12.72766550970920
C           26.70603268791301       19.70222496179967       11.54676383250705
C           26.67273924995494       19.98593910678988       10.11313759556402
C           27.54754960950660       17.74703755049315        9.67727818526576
C           26.14693533388749       18.76187531770648        8.03405339998966
C           25.46624529863607       20.90895264270303        9.87617483403527
C           27.97005773919846       20.72274505271692        9.72595558820004
C           24.22068774300535       19.62578900847357       14.09858957019013
C           23.68007118868700       20.88507735188238       14.78205855799872
C           20.63012762587931       21.49972399836442       16.29349900962392
C           21.06121935216522       19.23682054759025       20.61868053546695
C           20.30309926068295       18.29384940559434       19.68122175174385
C           18.84933060093739       18.07586036155524       20.11766668896012
C           18.29370383616730       17.59625081488735       17.84178580748376
C           19.76139940115958       17.83929016661197       17.48173662139698
C           21.10817779557377       21.90779102492994       24.21303442992863
C           20.68257558521363       20.69756915039033       25.05241352604057
C           19.15838745496760       20.55064910210652       25.04463530700141
C           15.29867148876428       16.22491691435042       21.35588874589060
C           14.56053581230003       15.41624963989629       20.46567922269367
C           15.03445855021191       15.18172004520175       19.18102841559575
C           16.22024171391820       15.76700795658324       18.80046297951306
C           16.96229755944403       16.60785121339246       19.65727938948924
C           16.48430124077647       16.83035502749063       20.94079649882299
F           22.51535180968322       19.58491092189263       16.41376543060598
H            9.44682331411130       18.15425170414251       21.71506407433339
H            8.84054864708663       17.14309880383534       23.04420874725142
H           10.29650615020376       18.12423967605426       23.26458104861523
H           11.44146738455458       16.72038250139859       21.49541274467090
H            8.71040368132331       16.68597362569841       20.09168900157317
H           10.33214792865164       16.28718945859572       19.46622945517847
H            9.04641222610385       15.04860851327636       19.49346614515319
H            9.73438738275586       14.37118412269141       25.96114632167988
H           12.06278865143093       13.53071996468447       26.34908978643240
H           13.79269618776528       14.04606477093664       24.62732719399323
H           11.58874148022777       14.03401336517459       21.09300936026141
H           12.43899294710425       14.08885332186639       19.53993338829448
H           13.24382087424942       12.39105345871509       21.95785313424722
H           12.49337512290082       11.79291546692504       20.47408126266560
H           14.13206916441970       12.46192268924271       20.43153749368494
H           14.70758520025908       16.28200165416304       24.71447561793650
H           16.16089241420078       16.83306602163224       23.87356150775616
H           14.61662506325030       18.20086378206148       26.25688304657869
H           16.19171543838508       18.61736657821565       25.58142195175175
H           14.91116919411261       19.82877021580347       25.63859706784100
H           12.79178064977618       19.45525530928201       24.26409617547458
H           12.75685340523687       18.18472496408412       23.03489383796742
H           12.65046894359675       17.76295058368248       24.74500673644121
H           14.76253520137915       20.25178492464797       23.10962128366856
H           15.01515473114493       18.84786147486363       22.02785009733194
H           18.98857511251664       19.61852950896772       23.08048338132812
H           18.71025881376142       21.99610369330270       22.08984991240885
H           19.44073881352884       20.67037679014334       20.83499566091531
H           21.05019790024959       20.71743234173389       18.65276031067484
H           22.20805670468905       23.80282856125286       18.18829975705914
H           19.32676052333853       23.75676475160830       17.18921436219102
H           21.11496645010380       24.01028667449016       15.34564341392717
H           20.09713217588751       25.43446515372313       15.56227031238386
H           21.72770279044008       25.39558588890760       16.23357312063696
H           19.63130003677146       25.09365283738581       19.25313605842886
H           20.96584481933920       25.95602001703238       18.50642493389939
H           19.33502579617305       26.12093781834252       17.84702102562552
H           25.48241637000380       20.92839437957602       16.88657270249940
H           24.58384302202948       19.84323667052844       17.94280593301582
H           24.61020492410512       18.06146378747887       16.25223363270078
H           26.28175102399126       18.61280912016026       16.52774167583342
H           27.18558365588905       16.74893441842351        9.43097118699727
H           28.44114311379138       17.94775654065533        9.06736111183316
H           27.82900960082305       17.76094393236541       10.72930722658126
H           25.22959699996145       19.32456410652088        7.88931676103735
H           26.94578657405232       19.20369459069731        7.41953966741736
H           25.97776087652747       17.74412556458069        7.68438165573148
H           25.49892882464361       21.73043414585552       10.58484144193571
H           25.48841351110000       21.32307835174214        8.87603555350839
H           24.54319899062878       20.35639687054154       10.02017073024440
H           28.84522777905699       20.13675416154101        9.99717576397739
H           27.98477584740819       20.91384089210906        8.65547781078197
H           28.02082795780049       21.67288241481669       10.25119171369639
H           24.41052232151669       19.82031500432529       13.04370058103190
H           23.48481107092048       18.82016269507758       14.19180733242526
H           22.75562627727811       21.18940234336767       14.29452559616931
H           24.39908364476377       21.70064174983016       14.70182602751591
H           19.90720725300264       22.22895546154836       15.94198795857652
H           21.04513390425027       20.99274827138558       15.43061133333221
H           20.11232875310204       20.76140200333388       16.90604336370291
H           22.10575057341925       19.29344777254908       20.30884041221590
H           21.03675785886507       18.81206492998441       21.62291260993827
H           20.80860474827223       17.31319848268578       19.71299031600631
H           18.31414571122169       19.04131949579095       20.13606834354912
H           18.87199753806364       17.65656950248116       21.12386798001033
H           17.90569968773726       16.83770796866131       17.16578615352667
H           17.72424675352832       18.53033526581330       17.69232710028660
H           19.84884449651478       18.25621092494580       16.47862261154211
H           20.31879476651591       16.89287360367900       17.53422171081918
H           22.19087669772079       21.96618650876010       24.10325908254857
H           20.72161561300316       22.83361790877962       24.64179523480191
H           21.03463413805079       20.82112597388686       26.07464852990543
H           21.14296534753947       19.79873277761838       24.63395428024680
H           18.70068188393954       21.40630270455891       25.54499035665296
H           18.86264910888227       19.63560909228959       25.56129207524014
H           14.50098204210579       14.54913578225789       18.48806373142990
H           16.58810605082377       15.54990784958916       17.81158822141040
H           16.99502035326967       17.46432757455520       21.64325726250733
