151
 energy: -221.326924183728 gnorm: 0.008411764137 xtb: 6.7.1 (edcfbbe)
C           10.57544638934858       15.80180609283619       24.26213386999898
N           11.89395236838786       13.30879394443818       23.85628772279516
O           10.20658207705905       14.82479604645454       22.03250175901258
C           11.17320991092249       15.39732593213092       22.91492517572112
N           13.25880192112907       15.94388821427667       20.48315259775448
O           16.90583666693083       19.03725652342283       23.74494322984777
C            9.19405680624591       15.70687283160404       21.59781314845015
N           18.97452726239746       21.68281000042471       23.18427538270928
O           27.02012627706511       17.47523965533708       15.12499159324951
C           12.23271640338486       14.32369923262049       23.07594443186591
N           20.34121208853508       21.98523525617736       23.17951883010817
O           23.87224993038372       22.04129292247370       17.94341347038070
C           12.73410724324537       12.30386173125403       24.02040551118599
N           21.01156794903489       22.29510696715500       19.65912279004662
O           19.41349586588372       23.55554284872519       18.68396260594003
C           13.97357222813285       12.24829100428250       23.40439648338756
N           21.89643938417197       22.31427474747558       16.90947843516488
O           19.04789622245568       20.34007050207039       18.28112483719906
C           14.34303756910239       13.30928093756177       22.59811975841919
N           24.95008881369697       18.39772871568746       15.07702073598374
O           22.25181482025391       22.15897642904195       22.00649143015597
C           13.47238601233930       14.38351999248116       22.41934157584895
N           27.29621341297685       18.98290323489369        9.92212329903360
O           16.41500511595071       21.10619215500009       24.45854868104402
C           13.91515166192374       15.53131388716074       21.62063354408122
N           16.31999844653419       20.36803800689076       19.15986668758901
C           12.30305068831584       15.17410527548103       19.72710553923967
C           12.99246792800660       14.32368075301695       18.66053472635343
C           14.98265661004344       16.36352408378855       21.88574274272628
C           15.96198157227198       16.26263453676743       23.01367878965141
C           15.59981696621446       17.07077272306505       24.27853724785938
C           16.65186412279282       16.80261908065062       25.36053527627021
C           14.22169574697665       16.66085463098222       24.79550342411113
C           15.56649067771029       18.57307173262075       23.96712810772084
C           17.20923061427753       20.27248056644303       24.08180224097885
C           18.70848107453752       20.50392920254911       24.00590197126506
C           21.04044941310433       21.98143927269665       22.03517702492568
C           20.22513590642581       21.78534657941600       20.75475868120332
C           20.56463375110986       23.14858532169308       18.73360480681870
C           21.65646829990715       23.51441774953157       17.71343581997439
C           21.33742565236063       24.76548020032374       16.88662835032534
C           22.43204801606299       25.00458628563635       15.84748049903857
C           21.24343620521631       25.96536472527929       17.82978536689148
C           23.01206461245321       21.62291457029352       17.16612975498478
C           23.26414699542974       20.26483344051025       16.47702961299721
C           24.44906862273101       19.57501837643876       17.15766464347447
C           24.74285738323236       18.23234475906953       16.49753159231653
C           26.08403848265962       17.97208834894999       14.49613231383475
C           26.13615555119655       18.08295421531801       13.06075659741407
C           26.33082225250417       18.03912916127796       11.87317511151241
C           26.42932302394864       17.91084607865685       10.42018689497738
C           26.83190144648723       20.31504562150720       10.25038412617674
C           27.65302061153141       18.89371748540548        8.52198223451161
C           27.06913648428193       16.53575881504441       10.16467712272845
C           24.99515643173647       17.92376368276459        9.84648415651036
C           23.84253598094782       19.00633958500218       14.38313115950606
C           23.53234784564643       20.38666852078743       14.97574567055951
C           20.81679582783226       21.94066025916580       16.01940139189115
C           19.88922567379050       20.29930880447822       20.55570459009490
C           18.70934897636847       20.01803796586719       19.62463233166794
C           17.42021118388252       20.76339269120896       20.01556151572945
C           16.67658375857588       20.67165972987244       17.78502189165460
C           17.99402125191347       19.97939379583134       17.40691534602791
C           20.97008359698403       22.19454435736303       24.47439510677627
C           20.75088831590338       20.96782807220399       25.35798150802819
C           19.25755558553438       20.65719203978391       25.43585096559615
C           14.99494744452600       17.34523418928186       20.84842719449872
C           13.91305976226695       17.04261724576000       19.99169898149143
C           13.64204282420734       17.83947973611114       18.88654644838692
C           14.45868983551800       18.91795989803528       18.64353658373587
C           15.57724769278819       19.21906362982887       19.45152410033260
C           15.83614797674755       18.42280876091099       20.55960698850952
F           22.13946524804563       19.44628861669944       16.67232789489833
H           11.37163275768708       16.09699551500917       24.93896511838936
H            9.89522710945357       16.63964544401190       24.13815140191371
H           10.04461051707656       14.95630995378295       24.68579545001075
H           11.61232838153228       16.28330971013799       22.42772914649465
H            9.62357352917043       16.64779280041667       21.23785030877230
H            8.69222779322269       15.19590121825961       20.77952490254192
H            8.47276305054072       15.91628625667727       22.39123602098908
H           12.38794922696923       11.51321715575759       24.67197600981242
H           14.62610539433599       11.40341557522756       23.54933356725080
H           15.29686856779248       13.31071804714668       22.09063480641149
H           11.74290825987733       14.53134996351671       20.40833639901325
H           11.60450021427200       15.86826503429188       19.25290485652124
H           12.24942805437957       13.76273952188004       18.10217299801152
H           13.55047588978760       14.95444658616174       17.97307962727696
H           13.68231499461804       13.62310569838177       19.12611497082545
H           16.05962070227637       15.21811157984015       23.31331316390127
H           16.93480223051687       16.60617219414879       22.65403075662329
H           16.59975561708869       15.76862081283723       25.68472284914517
H           17.65104588765055       17.00171822899713       24.98164762794086
H           16.47584948505306       17.44354045772428       26.22287338505021
H           14.00524658284933       17.15307809957776       25.73994182785973
H           13.45347851595268       16.93184878763994       24.07635162644080
H           14.18615645635576       15.58618170570775       24.94851720962876
H           15.14261868194070       19.13994021706240       24.80226155534352
H           14.97230006871552       18.77541757120166       23.07164391516313
H           19.17263289379626       19.63596184846070       23.52685635779425
H           18.44382451388217       22.47104862144321       23.55876446032558
H           19.31380813758149       22.38140219613007       20.82427728158657
H           21.99416436936016       22.05663790244250       19.69062755623948
H           22.58427748032097       23.69982500592712       18.26635833289518
H           20.37117087004360       24.64071481494944       16.39247107412110
H           22.27207441535474       25.95639622497426       15.35534815675385
H           23.40509511592673       25.02914621336588       16.32980726149535
H           22.44723362863208       24.22659618821073       15.09540038694218
H           20.45539858409080       25.81348706623949       18.56240604302074
H           22.18494037767574       26.11048906966537       18.35535501857860
H           21.01901452695551       26.86677089529276       17.26576084422867
H           25.31143395688233       20.23726484609040       17.08992903020582
H           24.22290727514882       19.42671336470200       18.21378841194891
H           23.89696806496924       17.55416871220455       16.65499671259946
H           25.64447757011905       17.78861407616661       16.92169710703391
H           26.57521152224335       20.36114536457387       11.30613053937252
H           27.64470064961963       21.01497374633299       10.06142154229001
H           25.96317795314470       20.63247457563894        9.65408760506621
H           28.40214051597226       19.66222620371383        8.32208274128081
H           28.10032798856847       17.92668340084074        8.30904034741765
H           26.80112747188288       19.05721856243670        7.84278175874101
H           26.58545289031472       15.79175592379358       10.79319916369367
H           26.94888954618295       16.24005300327607        9.12696184473467
H           28.12554001285101       16.56646156350255       10.41776009281380
H           24.48828908940041       18.85323460490478       10.09210813459809
H           25.02914022504493       17.81007097014126        8.76654527071629
H           24.42854127380550       17.09839835345738       10.26733205271730
H           24.08836775978660       19.09900079984185       13.32521362707403
H           22.96204907790999       18.36332847869605       14.49322768080992
H           22.67039023509536       20.80760794031747       14.46240330487933
H           24.38472042424786       21.05279172212571       14.84276169116282
H           20.78056331619830       20.87028055599702       15.86414920778905
H           19.87907844802827       22.24182680505507       16.48145680321320
H           20.91975113111979       22.45410038817337       15.06280885829146
H           20.77265448933249       19.79755574960180       20.16009483671300
H           19.64234390275652       19.85999921611284       21.51833005311965
H           18.50697594069327       18.93219794453024       19.66556740650001
H           17.57253015796881       21.83357947069502       19.84467422969410
H           17.17590590623769       20.61009567890276       21.06495187379165
H           15.89682595209758       20.35778633185603       17.09661355479085
H           16.80937593560730       21.75592212964314       17.70795069740054
H           18.31418515687750       20.27345906392838       16.40737810811645
H           17.85207893044359       18.88635179128521       17.43871111676681
H           22.02899708348814       22.37948034191778       24.29743701382760
H           20.51765149248808       23.07930408101303       24.93559208144704
H           21.15112657585365       21.15909892365166       26.35210998267602
H           21.28141298879520       20.11632726202929       24.92857720864956
H           18.72276642851540       21.47178915415981       25.92996752492338
H           19.08384803691104       19.74010674609891       25.99778126603814
H           12.80307929765783       17.63726105676493       18.23818720122606
H           14.21729440193824       19.56402754080746       17.81539301239639
H           16.67469426865796       18.61489238726464       21.20835899497863
