151
 energy: -221.326468880099 gnorm: 0.009822146303 xtb: 6.7.1 (edcfbbe)
C            9.92666409119682       15.93918509413580       23.72685533329913
N           11.34527328187537       13.53596142194901       24.21409164179983
O           10.15107338348875       14.51162081304761       21.72924821779240
C           10.84814526126655       15.31811040894821       22.67834376088608
N           13.57008412461412       15.41292735789384       20.73622024396175
O           16.55317815792247       19.23624030637957       23.85911866722861
C            9.27957132203903       15.21188004784409       20.86851163844614
N           18.97760218326470       21.60811095060538       22.80805239941276
O           25.98680271831292       16.69174343758399       14.49303946471571
C           11.84907179663564       14.38331529413601       23.32827076129367
N           20.30634322089875       21.95957591829121       23.08053958709032
O           23.87738459567186       21.40085630424518       17.95681889747726
C           12.14029652105855       12.66629424752578       24.81031086203773
N           21.58466922546690       22.40899849918396       19.73249224928963
O           20.04320244042433       23.71016733062667       18.69806486777181
C           13.49872025038163       12.57892533870388       24.54841883109877
N           22.19764400437015       22.36763832762403       16.81653117994002
O           19.60516125421562       20.70293399158158       18.43275097328868
C           14.03337114042446       13.45896834650133       23.62645474531497
N           24.15722594354024       18.03637659308644       14.55331102326476
O           22.36314291764880       22.43964261104673       22.31363069065936
C           13.21050019848943       14.39454245104041       22.99604163824887
N           27.25739443611907       18.97954179854699        9.83860798639935
O           16.27246689531446       21.36434285555453       23.22244047782199
C           13.84145168509313       15.35337266155800       22.08477622375051
N           17.46645615313520       19.00466616371507       19.17789585419305
C           12.80612327436656       14.45214232730338       19.98072002507895
C           13.70733963424250       13.37538170550201       19.37585519678316
C           14.82525420515913       16.26118166827247       22.41542049592724
C           15.41454440117189       16.50615942359765       23.76778756648297
C           14.81016105606058       17.68933094676096       24.55663584438143
C           15.39997102560153       17.68595621732917       25.96981251073377
C           13.28985608627106       17.55581337640298       24.63557275718584
C           15.13213874585559       19.02402481459744       23.87664407183920
C           16.98621255540274       20.43563989747294       23.53253407694389
C           18.49426662972061       20.54680956521588       23.68262069436656
C           21.21048145338209       22.08304718808322       22.09602364258498
C           20.73177984167450       21.74200662384290       20.68597557216389
C           21.17394650151378       23.25123642781487       18.78012828884075
C           22.27000404500004       23.51096463062067       17.73231635458940
C           22.16309694566199       24.87759923295809       17.05000111558663
C           23.21896202599416       25.01630183237752       15.95290694258799
C           22.36482423676288       25.95321866938188       18.11782441360104
C           23.02487088016236       21.34654726087729       17.06470621666404
C           22.96670007988341       20.07198379965202       16.19842217368124
C           23.90258867523479       19.00861293361691       16.77938294568626
C           23.85752980918999       17.73841519293332       15.93403878198077
C           25.23060097995639       17.49492366807345       13.94499963632325
C           25.43054286573543       17.91208862814400       12.58137489744099
C           25.69959391973925       18.19841361093799       11.44359239318110
C           25.84977294648827       18.63553897657623       10.05759545929704
C           27.75392581630267       20.00540919527204       10.73332039320752
C           27.61558780507445       19.27168443762579        8.46683455406994
C           25.43765625521200       17.44963582127587        9.17100303254298
C           24.85908742773328       19.80465100682720        9.84673279322553
C           23.27746936125378       19.01077620607110       13.95368080199904
C           23.33241034026879       20.32768916079986       14.73477018566419
C           21.07259145618719       22.37264441840629       15.90363287323516
C           20.81401951830996       20.22128207228652       20.45857551448411
C           19.77989674731823       19.72141034160846       19.44025309834522
C           18.45971852904406       19.38532488363952       20.15407791362994
C           17.26976855944285       20.08062767518708       18.22923901948693
C           18.59655988898409       20.32827663403488       17.51537618053585
C           20.64076897014085       22.28938460988837       24.45811803171529
C           20.25463107295674       21.12513984857926       25.36447059191236
C           18.77122848149147       20.81983641648470       25.17617782410364
C           15.20892473827839       16.89616304368059       21.19879804036503
C           14.41550532050054       16.33234651060286       20.17477310658817
C           14.59421161269947       16.71334438133374       18.85001906093300
C           15.58314098286755       17.62381868599902       18.55908228578731
C           16.39817400627308       18.18972966028937       19.56087574210730
C           16.18944621847755       17.83700243272699       20.88421198602338
F           21.66438175010881       19.54725910002626       16.25646575525614
H            9.38352446418573       15.14854239846592       24.23555162214524
H           10.52394545294781       16.48592457597818       24.44985361369814
H            9.22541117644169       16.62738016669026       23.26244499863049
H           11.38476878727982       16.11591075403475       22.13724096187827
H            8.99772819671814       14.50048532083282       20.09486019508516
H            8.38070107378165       15.55279908139179       21.38912341011924
H            9.78644977039206       16.07060678290182       20.41452815241520
H           11.66011047342123       12.01417071535838       25.52686843126077
H           14.11771559284798       11.84981314129931       25.04688564706860
H           15.08212667532082       13.42546025676270       23.37215573615445
H           12.06925524089618       13.98946207375277       20.64087558290057
H           12.27399079691396       14.98351124927079       19.18608006680141
H           13.10484798910185       12.65224033021201       18.83548435241012
H           14.42662239356443       13.81898209367659       18.69277847514936
H           14.25146984051364       12.85913598897444       20.16270831740655
H           15.28183452788182       15.61170775899585       24.37829791399814
H           16.48483826078259       16.68656025569906       23.65407543796278
H           16.48444171310178       17.74080096002089       25.92808083537082
H           15.03083715947309       18.53596595924004       26.53882551047955
H           15.11776410579636       16.77525827777404       26.49061717823545
H           13.02472885922817       16.58594729806853       25.04960334403182
H           12.87075076277183       18.33133676620302       25.27117326739176
H           12.84675361532794       17.64055660283294       23.64722019052767
H           14.66859902764797       19.85650094900144       24.41514804457966
H           14.76536077441104       19.03681607046577       22.84643368179972
H           18.96627981853054       19.60552977063368       23.38654209842079
H           18.36624852182232       22.42200142014505       22.91436726996049
H           19.71409506983877       22.10680911954684       20.53086107426782
H           22.54957977666767       22.10438493880120       19.72415346477122
H           23.24518356848375       23.44872944783337       18.22457802542165
H           21.16124859872749       24.99930108257743       16.63180918152909
H           22.93303546111879       24.48546001205935       15.04634322750370
H           23.35694799013958       26.06963798357422       15.70350405003744
H           24.17270195766329       24.61785013928114       16.30103272843117
H           21.61188888438597       25.85916090199997       18.89715088748263
H           23.34875368693243       25.85912167800591       18.57263516376469
H           22.27858383347007       26.94195581431703       17.67501464384804
H           24.91197440377780       19.41936366597926       16.80318996658753
H           23.60814492530977       18.78473904806154       17.80475252590104
H           22.86831309681792       17.28746353386708       15.99434484371754
H           24.59615068308577       17.02436656574509       16.28742510526737
H           27.44226284033024       19.78232828116028       11.75227468163361
H           28.84318084815635       19.99379788472318       10.69860626258577
H           27.41333176470885       21.01749530967680       10.46773943299270
H           27.43788015086776       18.40160902560459        7.83829584527776
H           27.08144944523350       20.13836768151215        8.05061919832061
H           28.68206968561718       19.49494688600525        8.44043218431920
H           24.49823273177650       17.03840495885674        9.53212497414794
H           25.30145920218278       17.77002012704407        8.14255836117246
H           26.19717505304378       16.67327960200795        9.21418971493104
H           24.92871402581951       20.17671878342651        8.82766704162228
H           23.84609778984766       19.45507719285186       10.02154645318740
H           25.07100159493758       20.61628929997184       10.53911365510070
H           23.57210490106959       19.17374214806108       12.91724008596490
H           22.25469912381519       18.61936779175490       13.98042243351941
H           22.65048305143846       21.04373795228472       14.28206219657032
H           24.34239254926151       20.73663426874447       14.70924784788764
H           20.23549542374593       22.85537935933283       16.40596506199539
H           21.31546472578292       22.93546423637769       15.00137452022870
H           20.76746490190224       21.36751371924463       15.64199346074984
H           21.82290673542579       19.99502113962713       20.10926109147872
H           20.65702773973580       19.69455630846524       21.39858040095644
H           20.14630645556678       18.79724580644788       18.95927225462886
H           18.14099617438662       20.25542412976218       20.75255103994569
H           18.65441851542913       18.54089024240945       20.81655885932500
H           16.49605360519844       19.82687738762677       17.50991587520630
H           16.97835256595594       21.00593159406063       18.75386099612217
H           18.50390107365454       21.15966113928828       16.81662041769920
H           18.90771766148384       19.41965970293188       16.98136830144524
H           21.71155351052244       22.48961303013792       24.48682509771244
H           20.09683483927192       23.19492420860812       24.74763004496818
H           20.45737767749555       21.38669318742011       26.40153396315583
H           20.84969190082025       20.24939742214358       25.10350883190185
H           18.17322209865884       21.67718845206581       25.49624741118793
H           18.47390274356569       19.95105479198200       25.76161323276814
H           13.99570541226232       16.29478934731533       18.05486555948217
H           15.76292916783540       17.88222018870562       17.52613720091987
H           16.78340042381597       18.26434772973316       21.67146070883139
