151
 energy: -221.328357236254 gnorm: 0.005289772443 xtb: 6.7.1 (edcfbbe)
C           10.62853071103993       15.70424619937379       24.63457531771849
N           11.80430167215434       13.25680943306620       23.87893152398636
O           10.05610555201004       15.03863177874945       22.35100829914142
C           11.12148776460394       15.45870842561874       23.20703315829894
N           13.16519146979957       16.03291400924453       20.61821401612412
O           16.94173914973645       18.99659210694586       23.90291986746007
C            9.19365008339423       16.07055608910056       21.92088384820022
N           19.03943155063084       21.62739541448230       23.03557066599619
O           26.55177003182838       17.03230265511688       14.94046032546697
C           12.14607575719123       14.33982912504324       23.19451507460771
N           20.39752420760989       21.96191642766765       23.07516011555304
O           23.58009387771443       21.49101298808258       17.92059844885607
C           12.62996228974573       12.22853368287498       23.92984038599642
N           21.12492747328373       22.28443773667859       19.55762685138655
O           19.46818791241779       23.36721636681647       18.46641813575809
C           13.86453944894854       12.21718525623996       23.29878845411783
N           21.80479033221571       22.09792897820458       16.68372199068228
O           19.17359314634871       20.15396602641430       18.24314121593538
C           14.23160086116864       13.34234245463910       22.58559544000694
N           24.49676822994679       17.98296867362123       14.81476561204378
O           22.31954573462700       22.26236985716289       21.94290071985052
C           13.36968769240826       14.43858879398230       22.51544082278827
N           27.90486380404485       18.87586834908495       10.21989719750799
O           16.44948418977722       21.17903049791819       24.04154559673408
C           13.80731779787646       15.61922877030419       21.76277555337535
N           16.44876701137050       20.24238021475392       19.12627280331862
C           12.16664953669830       15.27517953963761       19.90527840006695
C           12.80108570267444       14.17146211061216       19.05941920001974
C           14.89858652925394       16.42304019902846       22.01630769727554
C           15.85041890614089       16.30005253026701       23.16357735849221
C           15.48795908414072       17.13378488518996       24.41312930060892
C           16.47192479119243       16.79577858900916       25.53693379669144
C           14.06618238677902       16.82439932556136       24.87866763273864
C           15.56703623699767       18.62917978216628       24.09451697947318
C           17.24819105344712       20.27415242969034       23.93303507529341
C           18.75100954141744       20.47784927051119       23.88473070395141
C           21.11965874969453       22.01552727070605       21.94640687705288
C           20.33666627281598       21.77439409853502       20.65377784262550
C           20.63906350264051       23.02206120345184       18.55637333707245
C           21.69818523760536       23.32277334626680       17.48318299751777
C           21.39985860931743       24.57578541717232       16.65137811393138
C           22.48537345431213       24.78911006713390       15.59804839847220
C           21.33356930134441       25.78776086001247       17.58010734947905
C           22.76647840713838       21.23535899348400       17.02839106892905
C           22.92459313220577       19.90455978949776       16.26556584173035
C           23.98274474431670       19.04036930416760       16.95457019169687
C           24.18036631146098       17.72592139561721       16.20080125325593
C           25.69054180418853       17.63639456280194       14.30071577347942
C           25.90312639357740       18.00252200836590       12.92340537724309
C           26.25206013229278       18.22485699958217       11.79221988369128
C           26.48800270179681       18.53415910794406       10.38372997664832
C           28.36363095940732       19.93298758161377       11.09578867238808
C           28.33235347475174       19.12021337718954        8.85919383221213
C           26.15888861881069       17.24981927221098        9.60321709523214
C           25.50301327141245       19.65356067401043        9.98001561780607
C           23.49665483008315       18.75387471422257       14.11616883544673
C           23.29833878564865       20.11353840658410       14.79610340328649
C           20.70912203480117       21.85780251242005       15.76748790801457
C           20.04858612313299       20.27117735354301       20.48542374260010
C           18.84589880869820       19.91994391708899       19.60644013686599
C           17.55095439672251       20.67304406254714       19.96218291603164
C           16.80648602842666       20.46202013601109       17.73558092089235
C           18.11465197045721       19.73437451651257       17.40219654269897
C           20.97586734708914       22.21345479189663       24.38534815099721
C           20.74988582132137       21.00240590913129       25.28723347176873
C           19.25958776059872       20.66703882207672       25.32667465144533
C           14.95086201555975       17.38060975534390       20.95725672150049
C           13.85981006830735       17.09568500148760       20.10407308262929
C           13.63203346177306       17.86493615278625       18.96970271240839
C           14.50462991539098       18.88784170519336       18.68789588425832
C           15.64106060291080       19.16129648747672       19.48265871963905
C           15.84793025151438       18.40262852081739       20.62794859514653
F           21.71221873395958       19.19412507479501       16.32734283284415
H           11.46815295528033       15.94007099861605       25.27943980047336
H            9.92267112941779       16.52980764175462       24.66323664523435
H           10.14426392656292       14.80113163033285       24.99303678461089
H           11.57194276642666       16.37427619225770       22.79367785723723
H            8.30735059150349       15.57443247670347       21.53001547045875
H            8.90445741285536       16.73203019683588       22.74012037033235
H            9.66378679184923       16.66714221946526       21.12946480355732
H           12.28287889142728       11.38299735396902       24.50767674897127
H           14.51189602873413       11.35759198640860       23.36108378116506
H           15.17788641614554       13.38251188475026       22.06441619405923
H           11.47184217208840       14.82938170446664       20.62031712520459
H           11.61411965871074       15.96458024232145       19.26366440407039
H           12.03174463870716       13.64863615834133       18.49935007983947
H           13.52250994703665       14.59334438113272       18.36330365418576
H           13.31141962430770       13.45547488251259       19.70004653964225
H           15.90166674113472       15.25471318315311       23.47314607898118
H           16.84371584370802       16.60634312239396       22.82948791450319
H           16.33939571901846       15.76355089702693       25.84818992157433
H           17.49678526776536       16.93018402627301       25.20200987232623
H           16.30048138338752       17.44010226720647       26.39576467492699
H           13.87861764673837       17.27639418246777       25.84925220861165
H           13.34121193010829       17.21093310547998       24.16847909886682
H           13.93004592125504       15.74916730152105       24.96392949455215
H           15.16229655536689       19.23163172624471       24.91418756683435
H           15.00926891526121       18.86997887506827       23.18415482780660
H           19.21778079662134       19.58892471015461       23.44907611106175
H           18.46912009547220       22.41579001434244       23.34775608846832
H           19.40780980822342       22.34536388671508       20.69330544629801
H           22.11181269123100       22.05623858664449       19.58662682309387
H           22.66678134172085       23.45426125762072       17.97719517943045
H           20.42535093075113       24.46551207608613       16.16980275421800
H           22.26428052164492       25.67922606058687       15.01602878812234
H           23.45146132356692       24.92468088666069       16.08086810118199
H           22.56179611011072       23.94371011498755       14.92095263669028
H           20.52453551993247       25.67414136745387       18.29681511368352
H           22.26746036038606       25.90569220480723       18.12552332923322
H           21.15488510825204       26.68899746653395       17.00017616717913
H           24.91390779506227       19.60487407484593       16.99425262761959
H           23.66965954599170       18.83810288140807       17.97915107865745
H           23.26270483865850       17.13111472061123       16.25124679232421
H           25.00410044643440       17.15837490760769       16.63719514129145
H           28.04795908806705       19.72595184161806       12.11665729309024
H           29.45290458499774       19.95178611007269       11.06891524239710
H           27.99763386649458       20.93001865338889       10.80311420590633
H           29.42132939162648       19.16842556362573        8.85691037436691
H           28.02977327651786       18.30136102049020        8.21465794246454
H           27.95163458296212       20.06711693530195        8.44618645441326
H           25.22555328775916       16.83108059583358        9.96979648365606
H           26.04958768033937       17.45867213995696        8.54350358401505
H           26.95003314063469       16.51990689222999        9.75146935908812
H           25.62328590436468       20.52223515080187       10.62203153959512
H           25.67595623156106       19.94546997755994        8.94751778585267
H           24.48390138495622       19.28991179105769       10.07219253375074
H           23.80591197937708       18.88888367781818       13.08031712010821
H           22.55087009954867       18.20196708144452       14.14603545786273
H           22.51878787096117       20.66278868643956       14.27330411485181
H           24.22245218840508       20.69090162639296       14.76526105960180
H           20.58533824572881       20.80123752087790       15.56890577299362
H           19.79293568696659       22.21824427361298       16.23379645497064
H           20.86795409372895       22.39654830340088       14.83285710348721
H           20.93298825415614       19.80670051689626       20.04391725111871
H           19.87937856857252       19.82912064346256       21.46326407984613
H           18.65508943688376       18.83653936809838       19.72205307420855
H           17.69882417652011       21.73616658713188       19.74605843673309
H           17.30858529991261       20.56301063350340       21.01786063757332
H           16.02434765379891       20.11229578681908       17.06756746447727
H           16.95159791272416       21.53780918316612       17.59345703514766
H           18.43367655315599       19.94831020200397       16.38298866132807
H           17.96779736407632       18.64877916347453       17.51931400503340
H           22.03660866575352       22.41588514771757       24.23659213145810
H           20.49384764537691       23.09944432813406       24.81215280548082
H           21.11167995806132       21.22321451023051       26.28988264106308
H           21.30861937904002       20.15146128543490       24.89574941828857
H           18.70098835562298       21.48227064967345       25.79329939961160
H           19.08498484671692       19.75576856726006       25.89792240842698
H           12.78803625340664       17.68106850958712       18.32253860547042
H           14.29483100945470       19.50961517355594       17.83194070017229
H           16.69884441681881       18.57697590557736       21.26793595101901
