151
 energy: -221.327153428421 gnorm: 0.008081388050 xtb: 6.7.1 (edcfbbe)
C            9.86154771040551       17.32882120185703       24.28331028868211
N           10.43794000244998       14.63601273694491       24.83104845314701
O            9.70965780427671       15.94356421269336       22.25786713560432
C           10.58585536204451       16.45207150658852       23.26082275048044
N           13.08213047216646       15.48080349979925       21.31292323612304
O           16.61790026290552       18.99844223786650       24.03812675902051
C            9.22063278812631       16.91440722978997       21.35918484471409
N           18.85148062221465       21.33826340762617       22.58961595994420
O           27.25349516783700       17.86957259364767       13.91083663901337
C           11.20338169513966       15.24025663129143       23.93429953577859
N           20.13096326224458       21.86124076836915       22.79227763902987
O           23.70362874440138       21.00681861943904       17.51620446217803
C           10.89054383213766       13.56591632852438       25.45756012265222
N           21.31509749942296       21.60590384529044       19.41802820006128
O           19.49654570559725       22.44124181188048       18.36750646375759
C           12.14909795990321       13.03280314680328       25.23157736883813
N           21.82433330195681       21.54848212427734       16.41320679607030
O           20.13040849422754       19.11838349134995       18.49766853282036
C           12.95980312898796       13.65987040006257       24.30446926190183
N           25.02223896099147       18.27767996250213       13.87402687918328
O           22.17618609783342       22.26521364457640       21.94378636151329
C           12.49416296803740       14.78650803838197       23.62531926220423
N           28.23833259919230       20.44388502023880        9.60008303761304
O           16.19178643870477       20.90613832428741       22.94865044710443
C           13.38210449793344       15.43746978519889       22.65491313893081
N           17.73583456547813       17.84186638380089       19.41634052531570
C           12.06898710274795       14.70271851630555       20.64616115630528
C           12.62578276025052       13.35130837028645       20.19611179813041
C           14.60039116950665       16.03812061962155       22.89364959996636
C           15.29918950995974       16.20659419471532       24.20525400150376
C           14.94375318961098       17.49403915218592       24.98248363374468
C           15.78432313133733       17.55380594155326       26.26072117706962
C           13.46035983595165       17.50434190215124       25.34985654979191
C           15.20830351582890       18.73628005458982       24.12706176470518
C           16.96558565535672       20.13402798265707       23.47548388026731
C           18.44740369335194       20.41714417546443       23.63832272534402
C           21.05295866308845       21.79213983285689       21.82024443514980
C           20.60834243480047       21.06251793043224       20.55097041942273
C           20.70715190518689       22.25557911932393       18.42314666620431
C           21.66764914899196       22.69624423656349       17.31112097278767
C           21.21046383181272       23.97316216437115       16.59407983347369
C           22.18988970214018       24.34285126746365       15.48162849466165
C           21.12692067696869       25.11113868200299       17.61102497472231
C           22.89068414876702       20.76805804060605       16.62072315825174
C           23.19096391109156       19.60169523872776       15.65538319161584
C           24.39233560770829       18.80901266281052       16.17289427822664
C           24.79677500469882       17.71500671256974       15.18610770826637
C           26.26034791507051       18.33448253555509       13.35065229466502
C           26.36402589478983       18.94785873948981       12.04966103754407
C           26.62479435573499       19.40934630479920       10.96815007226149
C           26.85124758940384       19.96242160338728        9.63415823553843
C           28.50880051650954       21.50710275540419       10.54592613391775
C           28.75792135670229       20.77389671436196        8.28942690507834
C           26.65613150829940       18.79950727563252        8.64924180453916
C           25.79142900863043       21.05142417928722        9.36490387576272
C           23.87164073651383       18.95050468051589       13.32419857693671
C           23.45851726381531       20.11197541120519       14.23565608772023
C           20.68644022219805       21.26807272076731       15.56135779662053
C           20.88747474797979       19.56111887697132       20.72602216590422
C           20.01808673998806       18.67074375927185       19.83609994132329
C           18.55640226319573       18.63759213271809       20.31447586285189
C           17.87038089696496       18.34134418316999       18.05900614569958
C           19.34385415224875       18.30624885601126       17.65654971450789
C           20.40858748592886       22.47513569514656       24.08027039319045
C           20.10207599424769       21.47043758224487       25.18952219645881
C           18.65665270126421       20.99576799420251       25.05406799735380
C           15.09428958052294       16.46469660205805       21.62164883826579
C           14.12505256959595       16.08962252310322       20.66684089615355
C           14.32333559078072       16.37477434901365       19.32429358722073
C           15.48897808471705       17.00136840108765       18.94999931686977
C           16.50608404003533       17.34594605842570       19.86924749291329
C           16.27838315555828       17.08296098850501       21.21566784334156
F           22.09604377190374       18.72168915973374       15.62135022499997
H           10.53727395124244       17.56094892536389       25.10152299282003
H            9.53152773406527       18.25838790213570       23.82686785671154
H            9.00600194636191       16.78687130740620       24.67430514098946
H           11.37834230404489       17.03701417133799       22.76293354212086
H           10.04281661299793       17.52189372465384       20.96090866422481
H            8.74572363053113       16.36264725705265       20.55084641055838
H            8.48588846454557       17.57001975922679       21.83247670707624
H           10.21014277228561       13.12487086937022       26.17272480354790
H           12.47862587329680       12.15436698752302       25.76251645610064
H           13.94610968573958       13.28092694380030       24.08066021505810
H           11.22797361285013       14.55503405639744       21.32580960473323
H           11.71611601353404       15.27033754858366       19.78080927893848
H           12.97605925127382       12.79020834446774       21.05817854612594
H           11.85359280919094       12.77650919992666       19.69670816981224
H           13.46006355722698       13.50019645422151       19.51315416184893
H           15.06783517947566       15.35908982485488       24.85290033551820
H           16.37461589594476       16.20888692950724       24.01970330718403
H           16.84357659261878       17.50609554239566       26.02552956516974
H           15.58927826017461       18.47890909153524       26.79795300451652
H           15.53183558602471       16.71935407233378       26.90858334464388
H           13.19381032090030       16.59282836003269       25.87838856656402
H           13.23365001451389       18.35372572984238       25.98973257877264
H           12.85243076703450       17.57481001752244       24.45348712008709
H           14.73735102111023       19.61992246732620       24.57148744138798
H           14.80984819432955       18.61293661397362       23.11598878412350
H           19.01468534791799       19.48780099436270       23.53455398776455
H           18.15975658580358       22.08789249693102       22.52538881527194
H           19.54668896534997       21.24825703526659       20.37707363791791
H           22.31935983867092       21.48907794206404       19.40437609920749
H           22.65379866669676       22.87860489124342       17.75102581324778
H           20.21117032197123       23.81381496674594       16.18212320263752
H           22.31020069130242       23.53387738696793       14.76677145308000
H           21.83461007107778       25.22288490979100       14.95358183769612
H           23.16604731903620       24.56710081995349       15.90804130191174
H           22.08775916803874       25.26198361136927       18.09823990204880
H           20.84307213834037       26.03326087596679       17.11037627618770
H           20.38377060304519       24.89042705324457       18.37290157728924
H           25.21732698599686       19.50425915695874       16.32953006557221
H           24.13688268388589       18.36732807063445       17.13622603418629
H           24.00158554365015       16.96642234166347       15.11470710820316
H           25.72027424445504       17.23505400822096       15.51323772936174
H           28.05761697508312       21.26635696309539       11.50795303824141
H           29.58815439385512       21.57991988137815       10.68292261107232
H           28.13809462737576       22.48926522361687       10.21185601115442
H           29.80010249955474       21.06562135090174        8.40991304196828
H           28.72722744110614       19.90039249481483        7.64313540938884
H           28.22673846177838       21.60611571637062        7.80178116486368
H           25.72251682518699       18.28889933104432        8.87301867988518
H           26.61662220021155       19.16343548473888        7.62593095734539
H           27.47189471481073       18.08821108584969        8.75391137163628
H           24.80383876040254       20.59416644168362        9.29460286835553
H           25.78201535951494       21.78903802875383       10.16660631442350
H           26.01123102496382       21.55340900222368        8.42245566606442
H           24.11319192639615       19.32014214121568       12.32736482019267
H           23.04756024018028       18.23292758418568       13.25705339120549
H           22.57148834677771       20.59112928397026       13.82754786855070
H           24.26441218355142       20.84425578287967       14.29365743664137
H           20.71004562475385       20.25219871537740       15.19070037133598
H           19.77942313046653       21.39492960249676       16.15317118620138
H           20.65774243401208       21.96340660138665       14.72269653076947
H           21.93845629656888       19.38694773006620       20.48885956330772
H           20.71798663388718       19.27759089300512       21.76387082730959
H           20.40456849139327       17.63681295026593       19.88481539964942
H           18.16332921837974       19.66335890306948       20.39035617984169
H           18.55724914222140       18.19240833737891       21.30626189657005
H           17.32975273327722       17.71122350258452       17.36022938505318
H           17.50408228816733       19.37719027687658       17.98276281578811
H           19.47552779606270       18.69071057493651       16.64625067206692
H           19.70898292144083       17.27001843483685       17.70214938347319
H           21.45872558476228       22.76771734423662       24.07620214283691
H           19.78477529457690       23.36904128758987       24.19117459185346
H           20.25619029445548       21.93799242336054       26.16036580707171
H           20.77880170336666       20.62012790474844       25.10041969311535
H           17.97549643643168       21.83871947871384       25.19627839213112
H           18.42559393765368       20.23207093198175       25.79490198390505
H           13.58684141963735       16.12087361887095       18.57719506674910
H           15.60343844117920       17.22609412498432       17.90410114257002
H           17.00264528361852       17.32911207187794       21.97484591829486
