151
 energy: -221.323154527276 gnorm: 0.009876002100 xtb: 6.7.1 (edcfbbe)
C           10.21305679396860       16.19477988544849       24.66106321368202
N           11.06828668650627       13.55803465113414       24.14275285534924
O            9.71693518039998       15.46416871749214       22.36484404654020
C           10.75371443394178       15.78186043243410       23.29199015054531
N           12.97752481939197       15.85327320479840       20.78510782444156
O           16.93733119142395       18.65187632062825       23.77632277980429
C            8.91520847700374       16.55912388227605       21.97689711662278
N           19.05595079510368       21.28541297137512       22.74781626803358
O           27.54862632824626       18.19699763871217       15.21424775120881
C           11.60201139155726       14.53069645163090       23.41641727764409
N           20.36937540198362       21.74484313444056       22.86709599123532
O           23.77324639794328       22.59144916885163       17.91026946214006
C           11.73130014395787       12.42848188291053       24.30573135954545
N           21.08770588038485       22.48191686477466       19.42598658497337
O           19.23127143150859       23.27517295112564       18.40991889673447
C           12.98551451606922       12.20107336405274       23.75962876012864
N           21.89270209196652       22.59415400498119       16.67732316048777
O           19.54539158265869       20.26369099150885       18.00724616768834
C           13.55037757230543       13.20927614815913       23.00277385896255
N           25.41159584429657       18.96335414284493       15.16636164128456
O           22.26038157360264       22.40573794977999       21.84096211337071
C           12.85866546295908       14.40701162945244       22.80766159177759
N           27.85346308942465       18.50578313800780        9.95029345981769
O           16.51614410249990       20.84020935755312       23.59083047630372
C           13.50269628924647       15.44000413526502       21.98972832949284
N           17.21908221574632       18.92678009928314       18.97397150714307
C           11.89161357227782       15.22806591712716       20.07233545368459
C           12.39422282593271       14.08885487420583       19.18674273160334
C           14.71599402998389       16.05508661253490       22.21682146128672
C           15.59317145356573       15.93418009904628       23.42054485792328
C           15.31755382299218       16.97991281079732       24.52554735176993
C           16.25116092550974       16.71175520217389       25.70810324091831
C           13.86441349229936       16.88921629464540       24.99121417039703
C           15.53983787144536       18.40228001782992       24.00090547792351
C           17.28813790874846       19.90742149940462       23.60815414720582
C           18.79419943948624       20.08683600964941       23.53230565162193
C           21.11071885352879       21.98379967636336       21.77642718606664
C           20.44692793096009       21.67539617346654       20.43555283245264
C           20.44508020909725       23.17220422039503       18.47846206006787
C           21.41372619171042       23.75598049414906       17.43473285927591
C           20.80145723863095       24.85334641184468       16.55757086552764
C           21.81273601850848       25.33841887924956       15.52045473879955
C           20.36077992674006       26.01766357498114       17.44202782051677
C           23.05554327915850       22.05668488845795       17.05968106894978
C           23.52945292728052       20.72420662157107       16.44305594924881
C           24.79982939828906       20.25329947712232       17.15519623978028
C           25.25707263929447       18.90636604859990       16.60248929365528
C           26.55575661828656       18.55879915834023       14.58079835457010
C           26.53534025979457       18.56594821536295       13.14084327750002
C           26.57389108102541       18.44634888383017       11.94255205774766
C           26.49278318856144       18.39590520634236       10.48497566467512
C           28.54750143246413       19.71012862543452       10.35884722910241
C           27.97729189897590       18.30126492104868        8.52252687268530
C           25.88380074895089       17.02867732445780       10.13261104352157
C           25.53054362011731       19.51983940557096       10.03900597986460
C           24.23395364051831       19.39238019516089       14.45192118707982
C           23.79104933491086       20.77627981142162       14.93753318100630
C           20.93149818026419       22.01876749192565       15.76086875743738
C           20.63379652216788       20.17133975448145       20.14690674702204
C           19.57674543034032       19.55488002380986       19.22878937704445
C           18.18793448218451       19.49489870984126       19.89057859242282
C           17.19726684452836       19.70009884046297       17.74681223134904
C           18.59673595387529       19.68447914433393       17.13942233710384
C           20.89421232795104       21.93602382967840       24.20894851747366
C           20.77174817438747       20.62547700575514       24.98005781364757
C           19.31019245029267       20.18565192680780       24.98390048713593
C           14.97829376955540       16.86669678011013       21.07116474508619
C           13.87594328958127       16.70842727534224       20.20377854246531
C           13.84491176246835       17.38008286122630       18.99049458515795
C           14.92477103939507       18.15775932012796       18.64079531612001
C           16.07791391341039       18.27764954287302       19.44944335800275
C           16.07302070678835       17.64008436401645       20.68554680097881
F           22.53099821696292       19.76580633169662       16.69924379882902
H           11.03908630655428       16.31063667271102       25.35550142474956
H            9.67338747766870       17.13703204436104       24.59380291285822
H            9.54871814717088       15.41623798142839       25.02734529978371
H           11.36202448338626       16.59882521338296       22.86697310605179
H            9.53819210763367       17.41034523711456       21.67572519278957
H            8.32987371857693       16.21343491800315       21.12693494985335
H            8.24066593328158       16.86973308976419       22.77894980728464
H           11.23280547407619       11.67955241300706       24.90553456817765
H           13.49483656111902       11.26463398541337       23.91691675418660
H           14.51875170494485       13.08051381984455       22.54125729944347
H           11.16219148497914       14.84752662614165       20.78949459465851
H           11.40599029658725       15.99161195895976       19.45920375027640
H           13.13539442340066       14.45716445733290       18.48168403315019
H           12.85125691188368       13.31363544487949       19.79756315502215
H           11.56557545696561       13.65493639175533       18.63568700244239
H           15.46787311711591       14.94628773261204       23.86795817573966
H           16.63330081818295       16.03776690306854       23.10575351677987
H           16.11586368300798       17.46691696497913       26.47849618195828
H           16.03435223204409       15.73801799212983       26.13843716892408
H           17.28852657237143       16.72726019371797       25.38549251032682
H           13.61872905857384       15.86431476711431       25.25330659998005
H           13.70176171824211       17.51989097940724       25.86074507568242
H           13.19334772146172       17.21156328407897       24.20063522388343
H           15.17868699990080       19.14143329075020       24.72360122727436
H           15.00675357313065       18.55715475999737       23.05873282811153
H           19.25187131184629       19.22658660881883       23.03585479916261
H           18.39520708753059       22.00917678936828       23.03836573073323
H           19.39086488359807       21.94638089963961       20.45635519027265
H           22.09993346071825       22.49495889155637       19.46064743667242
H           22.28337164185819       24.16709858031539       17.95673583652804
H           19.91769787926414       24.45412106751535       16.05825004893949
H           22.23222759396423       24.51501629252034       14.95319046375943
H           21.33349094120145       26.02527591331439       14.83060770835665
H           22.62979693143587       25.85874974836828       16.01240205306311
H           21.20558983668583       26.40198037819998       18.01416078590148
H           19.96091544943605       26.82584450421187       16.82672384281445
H           19.58946442420245       25.69493119800894       18.13761960280958
H           25.56870785407499       21.01232730478300       17.01520456372494
H           24.60820880944096       20.16758418320931       18.22501316670983
H           24.51578831906210       18.13851015258909       16.85080484947576
H           26.21939091727685       18.62435770635765       17.03302038642846
H           28.40903071021540       19.86803882744569       11.42688090789213
H           29.61202262678634       19.57566142669977       10.16706721659251
H           28.21223218484162       20.60792416868491        9.81707009718919
H           29.03767285934812       18.33126707333275        8.27481105334338
H           27.59518746500658       17.32132707536685        8.24912158622804
H           27.46662609669192       19.07109173328273        7.92482807365929
H           25.01628111967958       16.84476209989831       10.76182316799771
H           25.56676539867737       17.00644901096434        9.09413298680540
H           26.61472282924000       16.24470689675412       10.30904825474558
H           24.54035169822643       19.33234740705442       10.44392872866771
H           25.87579044823025       20.48646352427430       10.39828768512110
H           25.46343889214016       19.54477228702788        8.95502994304781
H           24.45367242838767       19.42231045977288       13.38550875118653
H           23.42626287131707       18.67459645382374       14.63363149748160
H           22.90147750350492       21.07470664524257       14.38975638012979
H           24.57875219889736       21.50812669617987       14.76033349051522
H           19.93618770153094       22.18713062878655       16.16860885318917
H           21.00103123898628       22.50036080653527       14.78544113478462
H           21.06502453921418       20.94924709528578       15.66403113619993
H           21.61302684041472       20.04443940780995       19.68061364829958
H           20.62861786354191       19.61913098517327       21.08523482258126
H           19.88218061375380       18.51514540478076       19.01003435084898
H           17.87974183328841       20.50548538246393       20.19717484374245
H           18.27889539115435       18.87788428017347       20.77940287716213
H           16.51975002709914       19.26093699238343       17.02178162260484
H           16.90520163830220       20.74286579108018       17.94226772110635
H           18.61640514926754       20.26855422686146       16.22094441039455
H           18.88578728112095       18.64696387371928       16.92567455622461
H           21.93108341355277       22.25263988198415       24.10402428446547
H           20.32149646701605       22.72565069446350       24.70542786300120
H           21.12331223664142       20.76615567652033       26.00126538420658
H           21.39016936817817       19.86581818906595       24.50025702571204
H           18.70869255935776       20.92144136386798       25.52356830502886
H           19.19564885463862       19.21867899938400       25.47135864960522
H           13.00141103410563       17.30458881278594       18.32120732205032
H           14.86339488501858       18.68277078578259       17.70310900843953
H           16.91324387159681       17.70054572246597       21.35682357648104
