151
 energy: -221.327976253411 gnorm: 0.004081244897 xtb: 6.7.1 (edcfbbe)
C            9.98075938830354       17.21612821766735       24.12148621380230
N           10.51190157324627       14.48705348934027       24.52706849393118
O            9.85629041524359       15.91923423490289       22.03566490944262
C           10.71974279478400       16.38553016373422       23.07132187143838
N           13.36999850620844       15.42815411562395       21.18947094924828
O           16.64668008469417       19.07551493729912       24.00628524906794
C            9.28083983805970       16.93498076866030       21.24230324645585
N           18.75428833350555       21.46673421533010       22.49460777102276
O           26.24429543065228       17.08596613073750       13.48693092860309
C           11.32002867813400       15.14602676070452       23.70825832752291
N           19.94531242277874       22.16968124347649       22.70078389635903
O           23.55557722565486       20.68327025314056       17.31854820450191
C           10.94433914148599       13.39679484398983       25.13249983549242
N           21.41590977704435       21.59086357104780       19.45640422532708
O           19.74759713368779       22.82798391650836       18.57508590984585
C           12.22712086472116       12.89761105855581       24.96684737155646
N           21.73254986518702       21.63811136701137       16.41971925031417
O           20.67414505527303       18.81114012007291       18.84955459735145
C           13.07718347773602       13.57771306069224       24.11589311616004
N           24.18304990175709       18.03819187791259       13.50010316285781
O           21.94038396864859       22.80412537162391       21.86699309851848
C           12.63261639447489       14.72473270573654       23.45555579149896
N           27.99489158997177       20.23033238453077        9.67972236517527
O           16.10804991103152       20.89814590726343       22.82927714623251
C           13.57474993620678       15.39602506422245       22.55196963603030
N           18.24080091711776       17.55494929234176       19.62802909654523
C           12.35374058041961       14.69414481824372       20.47663065688637
C           12.74075173210949       13.22582353055801       20.30816094630440
C           14.79092999130253       15.96311646297423       22.86543600905090
C           15.41077242921969       16.16831178758490       24.21073953406848
C           15.01120203331991       17.48304148680037       24.91980803052504
C           15.81353574644484       17.61600348634437       26.21584816265876
C           13.51753078303284       17.46649120710521       25.24516805294074
C           15.25937630025191       18.70024854838793       24.01991005538325
C           16.92336755761621       20.22021753477812       23.41867753506155
C           18.35717697483457       20.66588279471495       23.64193407874355
C           20.91898510079670       22.13385663685100       21.77817635493210
C           20.65910721950960       21.17506111175244       20.61096658110067
C           20.90380376114484       22.41480532440626       18.54049713110096
C           21.86433004359059       22.72905081939202       17.38968253183182
C           21.63066601854229       24.11754737521485       16.77911136128357
C           22.60052189447213       24.36558123668651       15.62636967540773
C           21.82914976989996       25.17337494068301       17.86582694369705
C           22.64741946505215       20.66352187482680       16.48544796847903
C           22.67537849914238       19.55256641134865       15.41542324709726
C           23.64140815261828       18.44575276101333       15.84086274714842
C           23.78363345680370       17.40059701017043       14.73429193376924
C           25.42304540367788       17.86905607888584       13.00557594759615
C           25.73714189373640       18.65280832701327       11.83905285772706
C           26.18254668422509       19.26538759705769       10.90234754093412
C           26.53348622255811       20.09325309239496        9.75437292715108
C           28.65035917158577       20.42831393459547       10.95533255554923
C           28.45772294002762       21.20339209776581        8.71084361722673
C           26.03068256126979       19.34748643116215        8.50479467619469
C           25.77309712767533       21.42773781712982        9.91363669976365
C           23.24730774212350       19.02799809203882       13.02542404510575
C           23.08309492269183       20.14340974549807       14.06245031454588
C           20.51631551541476       21.65445297187862       15.63092809545059
C           21.01987875642040       19.75097239177114       21.03929328356719
C           20.33281034891172       18.66000871311304       20.21767124339640
C           18.80811249048724       18.65260726881742       20.39064544340417
C           18.59795134363759       17.68033055522555       18.22881332658254
C           20.12024720053752       17.75000455150736       18.10181384244752
C           20.02899120499402       23.00234803677876       23.89014147607895
C           19.74215145887336       22.14352750347687       25.11984190923718
C           18.38270319760722       21.46450054353249       24.96305174522179
C           15.38658480874036       16.34613606739218       21.62527365727030
C           14.47498582775597       15.98826982720268       20.60575727411459
C           14.77913662102350       16.23790402898460       19.27504737196183
C           15.99662540380591       16.80800300498784       18.97529510177641
C           16.95082724611928       17.11431727795672       19.96627889857809
C           16.62663443103773       16.88984948838465       21.29669161439682
F           21.41401942050321       18.95630637737852       15.27093471590592
H            9.12674784283633       16.64892655570118       24.47867774260999
H           10.64283041478334       17.41993384021050       24.95657404655369
H            9.64686405796891       18.16024331086158       23.70028999006252
H           11.52099922513179       16.98844762795000       22.60838791707868
H            8.51044225513346       17.48636478989152       21.78782465183471
H           10.04665817252937       17.63354883276400       20.88716313296928
H            8.82633626670428       16.42688739488258       20.39457650349611
H           10.22750493749781       12.91069904966395       25.78006523618367
H           12.54458933678352       12.00521454099557       25.48103235992296
H           14.08277932768680       13.22522014079651       23.93783166663902
H           11.40743917406145       14.76844752749585       21.01578468046287
H           12.23164962981954       15.16108318752776       19.49738383554189
H           13.70515798797883       13.14312616435402       19.81328187689133
H           12.80332392306742       12.73859283026531       21.27849179089734
H           11.99223398632783       12.71437719200432       19.71105517743530
H           15.13870950427988       15.34369680973843       24.87219028357962
H           16.49506273463452       16.16221481213107       24.08727442944615
H           16.87766579129243       17.64464265449741       26.00409089754212
H           15.53823919723970       18.52875209548795       26.73802623782180
H           15.60885387791476       16.77046035922092       26.86573869379951
H           13.26233315155450       16.57389853789684       25.80996638626474
H           13.24420881479494       18.33888293806122       25.83359004400792
H           12.93842172710967       17.47257163702102       24.32776023703888
H           14.69086568197848       19.56517850483946       24.38113300819776
H           14.94273041850835       18.49918407637244       22.99191815368170
H           19.01654798063695       19.79673424891210       23.72005497324898
H           17.99301809247157       22.11048829945578       22.26851718359622
H           19.60292345791785       21.25457958499123       20.34296030988409
H           22.37517595640362       21.28190801720831       19.37303855982146
H           22.89071928073567       22.68397768639992       17.76767711345859
H           20.59892063558781       24.18543922699414       16.42653106938630
H           23.62326063166308       24.35691971073124       15.99411382538839
H           22.51201036026122       23.60399530799391       14.85825100828186
H           22.40234666354001       25.33352962976146       15.17879727449574
H           21.11165822741866       25.03325438817900       18.67088690471418
H           22.83053945774243       25.10973406819912       18.28576213877707
H           21.68835757423469       26.16658004958071       17.44907715901308
H           24.60647209112078       18.89962267166440       16.06308923581162
H           23.26706209898485       17.98196644124515       16.75402165411433
H           22.82702484364299       16.89373387314378       14.57596561843882
H           24.54565856213200       16.66670738939030       15.00024389986346
H           28.40263256680282       19.60895678517182       11.62853993362373
H           29.72661397606702       20.42457296074899       10.78975319216518
H           28.38223026731727       21.37907068344678       11.44395589107820
H           29.52121013973309       21.03258685195882        8.54606593870534
H           27.94288678483451       21.06596688374677        7.76468666092816
H           28.32644266176544       22.24266205024389        9.04613053343962
H           24.99155058551797       19.06068668584454        8.63961512844869
H           26.10394759805415       19.97726270390221        7.62394983536558
H           26.62790074348510       18.45352303454489        8.35323525666485
H           25.91645099917594       22.04998938403103        9.03515600421523
H           24.71117643871701       21.23050697099007       10.03115092761350
H           26.12469321928330       21.96341994726397       10.79272045337747
H           23.60680090906543       19.44114914283893       12.08300485287622
H           22.28118640811763       18.53963693977239       12.86219804543777
H           22.32602259444649       20.84716787065058       13.72008258399016
H           24.02692306151709       20.67256176912922       14.19751459335669
H           20.61417735799473       22.34156704591544       14.79007639527881
H           20.26213370214516       20.66887566534229       15.26480089566034
H           19.70240711678845       21.99842719884679       16.26932368483376
H           22.10082236660878       19.63146547022296       20.94947145576682
H           20.74297325629906       19.60963324712883       22.08215056096403
H           20.71064331376240       17.68054927476198       20.55981632941336
H           18.39282876652075       19.61344524267953       20.04578419789799
H           18.57350051252267       18.53971450544934       21.44598364601790
H           18.26016917342568       16.79849603168519       17.68468464526649
H           18.15758168704853       18.58513659054900       17.77706374043417
H           20.40116591102342       17.92515096295763       17.06518045728331
H           20.55375626410850       16.79931747545216       18.44568376172070
H           21.03268318997493       23.42628394871584       23.91544139048523
H           19.29683027123123       23.81347665741455       23.80996365023977
H           19.74463885263774       22.77199946172250       26.00880914432759
H           20.52293388344000       21.38944395222870       25.22360856064099
H           17.59407841855365       22.22061869910438       24.93160619288348
H           18.18691474995542       20.79164974124815       25.79662351914583
H           14.08851418520887       15.99868955431679       18.48002748577082
H           16.20999470447859       17.02272524282803       17.94134905312550
H           17.33003792911732       17.10560330877834       22.08515911035353
