151
 energy: -221.330597786616 gnorm: 0.009838768056 xtb: 6.7.1 (edcfbbe)
C            9.86093042152705       16.88473473602800       23.15032922089456
N           10.65349510161866       14.51166026080712       24.49189172508055
O           10.03993996588174       14.92896588215075       21.67581793724175
C           10.77127950628905       15.84308042293436       22.49583780751319
N           13.67766219201456       14.99642439523324       21.21725637889456
O           16.52569168284385       19.34495911135642       23.55091526877696
C            9.61793903329682       15.45012881286200       20.43256317995803
N           19.04498972092996       21.56996460442438       22.80064228573614
O           26.45367008578836       17.16360255147875       14.20923216203814
C           11.45579067473997       14.99898000724502       23.55621061521780
N           20.40554942306035       21.82516847345856       23.00040570758367
O           23.52528714853792       21.19483870859141       17.74805831071319
C           11.15728174108107       13.76817123395923       25.45967336449222
N           21.43008128170933       21.95467161685463       19.60803451354085
O           19.61581493610020       22.91217945454169       18.65004042182514
C           12.50591789996634       13.46237003604663       25.55541394261078
N           21.83204995992233       22.11226066900874       16.59075569057773
O           19.96750725953723       19.75456870079655       18.40240706768046
C           13.35035860411222       13.96023573023582       24.58075594177730
N           24.50326697665115       18.31926210664966       14.12053335181067
O           22.48205557165168       21.96906331226985       22.15636052972647
C           12.83594832429705       14.74721476608224       23.54908551170856
N           25.93235890878045       20.30462507601521        9.50848250610609
O           16.36526735875634       21.57940145955162       23.63985343506090
C           13.76190485053281       15.30321488207452       22.55795721026103
N           17.91004935873065       18.01070391145268       19.29098357848398
C           12.93635470989181       13.88240774715283       20.67798172006592
C           13.62860244383011       12.55367127400527       20.98580793785673
C           14.80322162007206       16.17727096164858       22.78557046403639
C           15.26520312883222       16.71091151636333       24.10441282307254
C           14.67892134138592       18.07712289405037       24.52265993318470
C           15.18932290061469       18.42129669322430       25.92441857047090
C           13.15310999316111       18.01750480552037       24.52806847618261
C           15.09988310927220       19.17403597038114       23.53690980966914
C           17.01745212183058       20.55924681807172       23.61656410808991
C           18.53383512958507       20.55723387142202       23.72068026081020
C           21.29369486501940       21.71252901851850       22.00125430759754
C           20.75527303095311       21.22424667889708       20.65499055219606
C           20.82030242239015       22.69238976837896       18.67803793002422
C           21.78609491634956       23.18914024191579       17.58884054883066
C           21.40413314829772       24.55931467055798       17.01574195115451
C           22.42759275480291       25.01148707915434       15.97639967031970
C           21.34099531193442       25.57349258779330       18.15775799349827
C           22.72761562223267       21.14100624294958       16.80900801025487
C           22.86970324915724       19.97346799997559       15.81237936657454
C           23.81715026766829       18.91691746580313       16.38308477304053
C           24.01786592260802       17.78796236379915       15.37440815808282
C           25.70759517370742       17.96661174110449       13.64293971774045
C           26.08604446266205       18.57831097059394       12.39552965662438
C           26.56562547894087       19.01557046435582       11.37937058329743
C           27.05251210154882       19.58111175545607       10.12399648607163
C           24.79977813669468       19.46037535491122        9.17689045447945
C           26.28245333154111       21.15134470037375        8.38690272824568
C           28.18934331240092       20.54745392704089       10.49346332389961
C           27.61810881759548       18.42490492734084        9.27230315179048
C           23.62670565149443       19.29011844750293       13.50974283832501
C           23.38405269660368       20.47000275674386       14.45827154389534
C           20.71427439476758       22.07019842864826       15.66976896253300
C           21.06243534019968       19.71986579547350       20.54061513719030
C           20.13150916623601       18.97722409305860       19.57511984077535
C           18.78632034330024       18.65096632410910       20.24812746624604
C           17.72192124388258       18.87699707526624       18.14248560782462
C           19.08204717409074       19.12606694686671       17.49819865364177
C           20.81456588381045       22.19391906207541       24.34735364186858
C           20.39985284353509       21.08547248237668       25.31184846749403
C           18.89597414084048       20.85265489375435       25.19011700280731
C           15.39682989169815       16.43180104833483       21.51264344344667
C           14.68304614363972       15.66101618758143       20.56683891625481
C           15.04227220867788       15.68520945609858       19.22355088957022
C           16.09683084914054       16.48096883240045       18.84287405251243
C           16.81279632546261       17.27380541586948       19.76373391320682
C           16.46211453595705       17.23661990937408       21.10289428873022
F           21.62963098642953       19.34150342486826       15.62331212566725
H            9.38103228479739       17.50190267567662       22.39553983343972
H            9.10405471451569       16.37280477751255       23.73683268049727
H           10.44841697845123       17.52397866269721       23.80240272658842
H           11.53099141801016       16.34589505199596       21.87489973959892
H            8.95869141868807       16.31613001434727       20.55736413710483
H           10.48303096046461       15.73600996375569       19.81423943177169
H            9.06678929874869       14.64198791451867       19.94846290593723
H           10.44302528596129       13.40835448690836       26.18776352067966
H           12.87917687572973       12.85440987554903       26.36332610189777
H           14.40664755457789       13.73624808215570       24.59753968435686
H           11.93039178254087       13.87380352751703       21.10407971330643
H           12.85803007651921       14.02067639629146       19.59749265284497
H           13.09717430339385       11.74012298005589       20.50206353777674
H           14.65818483802388       12.56831350713232       20.62946249016109
H           13.63365720306765       12.37492737396127       22.06066404106380
H           15.00069696140422       15.99708976712941       24.88949820742489
H           16.35519311823153       16.80134098061648       24.07667499478060
H           16.27494297164345       18.37365975200866       25.95785150723765
H           14.87886732739343       19.42444159764937       26.20866733135493
H           14.79081951670386       17.71850070855046       26.65093039481993
H           12.81337322562348       17.20101043983108       25.15944052370647
H           12.73357163852040       18.94648252376693       24.90445555237004
H           12.78317076957202       17.85092548911072       23.51976573312140
H           14.63501849340294       20.13043692586977       23.79672140627980
H           14.81402531018541       18.90084903724466       22.51739545443501
H           18.92952664004009       19.58378396193495       23.41693723996708
H           18.50704846872031       22.42952099040114       22.93639464816355
H           19.68693111998328       21.42929508302415       20.56778595858917
H           22.42598045437115       21.78778307101282       19.52856640908806
H           22.79212100470145       23.25924112778431       18.01464914503112
H           20.40967445357910       24.49748519899080       16.56661043906393
H           22.11395540268578       25.95273734383746       15.53381880937750
H           23.39616220517681       25.15938421627182       16.44821295816980
H           22.54721594699290       24.27891640136699       15.18363007723281
H           22.28848919641628       25.61078066958644       18.69160705516481
H           21.12629300198360       26.56277586068956       17.76294923095815
H           20.55629713964719       25.30709062880456       18.86202203659479
H           24.76707712117059       19.39460432048617       16.62047007098693
H           23.39607725847853       18.52164371859198       17.30799679608289
H           23.06441183702752       17.27887570081997       15.19645660717306
H           24.75020299439809       17.06877571911004       15.74364836447478
H           24.62199350345749       18.74990419282614        9.98174602813968
H           23.92037737589422       20.09590010419997        9.07377761575934
H           24.93561521931197       18.90666410259590        8.23730853918476
H           25.37620397916654       21.65554661367388        8.05659079713488
H           26.99352151183702       21.91091390636824        8.69956034818732
H           26.69637901588653       20.59759446544725        7.53185865134005
H           28.84501477115871       20.07023495170542       11.21629995094590
H           28.77623369567892       20.79779459654499        9.61407782825341
H           27.78149159105133       21.45382673457295       10.93263977802716
H           27.99040617746257       18.80847863833700        8.32622456594586
H           28.43750848284645       17.95053825829458        9.80417183573273
H           26.85551666632923       17.67469593165202        9.07912445362262
H           24.07446199787731       19.64668236315291       12.58174932611933
H           22.67055537991162       18.80373515086822       13.28789726390633
H           22.66398063383571       21.14844783824505       14.00382772268193
H           24.31578896465850       21.00934509594110       14.63431333375481
H           20.62811816833583       21.10486560992911       15.19035474967591
H           19.79962103074824       22.25509266205025       16.23572176884557
H           20.82451870027356       22.84354874054365       14.90990279212002
H           22.09622360373151       19.62321330770194       20.20319095544818
H           20.98214923649348       19.25237635819690       21.52239557483870
H           20.59842296887621       18.01722248314650       19.28963949542556
H           18.34718427376547       19.57910688842888       20.65130547417471
H           18.98476598419359       17.95712977234754       21.06554230105923
H           17.05119934457923       18.41783964946436       17.42092573852579
H           17.30002115750183       19.84825186245198       18.45350887453851
H           18.99038371105598       19.80226547129614       16.64866644904330
H           19.51563640816251       18.17278997393112       17.16346054053770
H           21.89481482708541       22.33447544544858       24.32878431409232
H           20.32891951372480       23.13696390431272       24.61838071815090
H           20.65408040373045       21.37260411211869       26.33091694728142
H           20.93921097652032       20.17055973935006       25.06330136772370
H           18.35463221485776       21.74786856053464       25.50622101538325
H           18.58103724610532       20.01941333947651       25.81703112671586
H           14.52067242419590       15.09248886767775       18.48759281477239
H           16.39770312299859       16.48104988839629       17.80715375758081
H           16.98626251203715       17.82450688097758       21.83631511223340
