151
 energy: -221.327437773220 gnorm: 0.005195279043 xtb: 6.7.1 (edcfbbe)
C            9.67893078760985       16.26269773801340       22.26627928790917
N           10.65040939018851       14.62854931074423       24.34302818679192
O           10.55510573693864       14.10737868438521       21.46446820229891
C           10.89456633640580       15.35690616440123       22.06595873452915
N           14.20920062017120       14.74063414570948       21.54029309711427
O           16.19654447062209       19.87883674044890       22.90794161371113
C           10.14155922026032       14.18221983505828       20.11709764780127
N           19.00719979443062       21.88000965474872       22.73059551442930
O           26.68145463758658       17.65296208549977       13.51352329187937
C           11.51084926432184       15.00395942540325       23.40588326105770
N           20.27746269012884       21.99472313487108       23.30176135499077
O           24.10814408730987       21.31815361578412       17.94769114529887
C           11.09577711070174       14.29090227095973       25.53900259076898
N           21.81515502730474       21.64818467647434       20.26210205914073
O           19.94796736176746       22.41305525778414       19.24679690087303
C           12.43888558268983       14.31919686752630       25.88192603941211
N           22.15503304128108       22.08850239422949       17.14752958467118
O           20.98668146821749       18.97438735708585       19.07538149354451
C           13.34220997569732       14.71225082269372       24.91279290498701
N           24.78460572674889       18.82474324403719       13.93436362437069
O           22.49639583922213       21.67111275052559       23.12163555839356
C           12.89110165412956       15.05868586547280       23.63710249170840
N           24.69080519475185       19.42279863368865        8.71559093861412
O           16.21083767682632       22.09774600522796       22.52960926589228
C           13.89952289413763       15.48012497182703       22.65783186154128
N           18.74784268349664       17.41385349852245       19.84661297827014
C           13.70994733134389       13.42268897684704       21.23674790391443
C           14.54033449140741       12.34381939939935       21.93145569618776
C           14.75238139317077       16.55744760554888       22.77039400199815
C           14.69526660035256       17.60989799113730       23.83059658211196
C           14.00600720982114       18.92992287356670       23.41094458823609
C           13.80459983225394       19.79716894401875       24.65660532258942
C           12.65306048967913       18.64552900476574       22.76098244801526
C           14.86847720486994       19.69442839255641       22.39738146466477
C           16.73917336571308       21.07911699202722       22.91673755453579
C           18.13136854833400       21.03020918775752       23.52580103129592
C           21.36982126023459       21.56081614005610       22.65162118902269
C           21.11776756003893       20.90772415451529       21.28772742982325
C           21.16926424830307       22.33978010359531       19.31786641884325
C           22.08848950766834       23.00778534199646       18.28802052880206
C           21.61178449647181       24.42134659684966       17.92692723031156
C           22.55925303803303       25.07336339624715       16.92356406571968
C           21.54390045151084       25.26012218491722       19.20345674139032
C           23.19965289976620       21.25282352023280       17.11618899384050
C           23.33306148951251       20.21693448873711       15.98273985652597
C           24.43840506871410       19.21724818368380       16.32389859902982
C           24.56553728273838       18.18180783868848       15.21084075660174
C           25.82642479066993       18.46892062578830       13.16288229364006
C           25.85643484947264       19.06462178687103       11.85229450320437
C           25.93658609726176       19.42077014343347       10.70513107597013
C           25.93721948633895       19.90686235236973        9.32788691951661
C           24.52852500293483       17.98294905527820        8.76120079237239
C           24.42165513497062       19.91415971269236        7.38025115380070
C           25.93296788983898       21.44312671813315        9.40278095183529
C           27.22591446092785       19.42039602785859        8.63745503367598
C           23.76870135271712       19.77853611295663       13.55467661416442
C           23.62142470434161       20.86455935412618       14.62677189378132
C           20.97771551348985       22.05664798462808       16.30351280564064
C           21.58117861863574       19.44637834528711       21.35944898768359
C           20.83999534272721       18.50709089846591       20.40674946307144
C           19.35643071257091       18.34072073453554       20.77677277049132
C           18.87856684159347       17.91691770082765       18.49114970429219
C           20.36276250154493       18.08188900460472       18.17353441434391
C           20.33317120426328       22.47665314092535       24.67405538426015
C           19.47646915505760       21.57001275399153       25.55898382815505
C           18.05896799879112       21.48657000750799       24.99476134728503
C           15.67090535282274       16.45903983509593       21.68364100144606
C           15.30042678747054       15.31276427269242       20.94258033813790
C           16.01986923039314       14.93210408236158       19.81457770529983
C           17.12211589560303       15.67408647498647       19.46260038044612
C           17.53820156940876       16.79552788871841       20.20914057126906
C           16.80167038134331       17.19089841367824       21.31199244467611
F           22.14327767269163       19.48037320332229       15.87161724116576
H            9.28162158889353       16.59989483825763       21.31319813961786
H            8.91671665355045       15.71147762679893       22.80909237877520
H            9.96779546332320       17.13363184110052       22.84651646132804
H           11.64456038009590       15.86495196076768       21.43806205402029
H            9.89729105499840       13.16186430083383       19.82941036531227
H            9.25725920166063       14.81060899535981       19.99727857641650
H           10.94853487090547       14.56417366700857       19.48167883655708
H           10.33663001854195       13.99101545460601       26.24852205727510
H           12.76540379822666       14.04133669853267       26.87090190113820
H           14.40155284964394       14.74371927022595       25.12318771315906
H           12.66810006905040       13.35158256684087       21.55526490938322
H           13.75206392120573       13.28614159918689       20.15359540857133
H           14.19154132064162       11.35955496973236       21.63486940809375
H           15.58901958130200       12.44424329369371       21.66202445223125
H           14.44764483629366       12.43601108015312       23.01096609109162
H           14.13995906013853       17.21224060415198       24.68224134008834
H           15.70869082316716       17.84444864324636       24.16075155375189
H           14.75602808019413       19.99209147421665       25.14657463058922
H           13.35531686633882       20.75074757233453       24.38772154049723
H           13.14897502395311       19.29493123349820       25.36296471104088
H           12.04213710471912       18.04907553846023       23.43318295596886
H           12.13124272782565       19.57345079153671       22.54215615517915
H           12.78281106809244       18.09451352578531       21.83338601958652
H           14.43830355146851       20.67521566213152       22.17588746600817
H           14.96379433425191       19.12100110431487       21.47196362718716
H           18.51249810264682       20.00546945993031       23.46893389731749
H           18.58084892193931       22.80109939046294       22.62098574040560
H           20.05539707507492       20.98782709953873       21.04933793872315
H           22.82229122046992       21.57318250459870       20.23635678655640
H           23.10292558750420       23.06985090560739       18.69289376557729
H           20.60391069170745       24.36234649608725       17.50978357529171
H           22.18685792321858       26.05612419418875       16.65111043690449
H           23.54585773249758       25.18767632826951       17.36356392119184
H           22.65653754946463       24.47764244035283       16.02165447215507
H           22.52169407476239       25.32302575432098       19.67525909108209
H           21.20611106129588       26.26499320853085       18.96750865726415
H           20.84509693540760       24.82146794332530       19.91161004126253
H           25.37070865783874       19.76397903209578       16.45688762119883
H           24.19596131375007       18.72353712163357       17.26510182820813
H           23.64335115768569       17.59150747475821       15.15663814323126
H           25.40734298262668       17.51375273562481       15.40014311503283
H           24.79678652152473       17.61047433096744        9.74765150996024
H           23.47991196038554       17.75139239606187        8.57569468852559
H           25.13365817441683       17.45567931901824        8.00782245586822
H           23.40001808125055       19.63251113929443        7.12548135345536
H           24.49142589958054       20.99666839293676        7.35343515139639
H           25.09124069106950       19.48823774075980        6.61799168883948
H           26.67782731911143       21.77083651046614       10.12358390577375
H           26.17704353682057       21.87821737572569        8.43856285388107
H           24.95556364290302       21.79133325980394        9.72354965235050
H           27.25332106979007       19.76974794277960        7.60841473831222
H           28.09249922194185       19.81167045248799        9.16369422730720
H           27.28196345713219       18.33426755444630        8.64811153074762
H           24.03879611060695       20.22741380476161       12.59915414099826
H           22.81312616246778       19.25320257246023       13.44505332006230
H           22.81165341930604       21.53422619993534       14.34317173730559
H           24.54273172271573       21.43896214617988       14.71685930565243
H           20.88882150826830       21.12087396739113       15.76938885861854
H           20.09982674710009       22.16268832456046       16.94100286174048
H           21.00176175243807       22.88228337879780       15.59200918080199
H           22.64807518142406       19.41531744539039       21.13289392822046
H           21.44478562551092       19.07439012237770       22.37541276534443
H           21.30671724992398       17.50790432992249       20.47268534237537
H           18.85878499950447       19.32463291820202       20.75265394240351
H           19.29758312352348       17.92539875980458       21.78366964897739
H           18.42667239517945       17.22353334680831       17.78500932709824
H           18.38644604122258       18.90023976411373       18.39208263983854
H           20.50147542467844       18.50461241201771       17.18028069832204
H           20.85952064316966       17.10158754927125       18.23050641438903
H           21.37935582114258       22.46398953915606       24.97880246957907
H           19.95728165075896       23.50418327674254       24.70284260959567
H           19.45524083202391       21.96728043975450       26.57254715757514
H           19.91880119907852       20.57269022280214       25.58648978418013
H           17.57842725586926       22.46707014829853       25.03370590779517
H           17.45724016919009       20.78162749762329       25.56765051219864
H           15.74309976175210       14.06497415960882       19.23494810433507
H           17.70840090850877       15.36914508855623       18.60948377946911
H           17.09447889155867       18.04434966921935       21.89892036927006
