151
 energy: -221.328018029136 gnorm: 0.003826998960 xtb: 6.7.1 (edcfbbe)
C            9.95344691143362       16.17562225941787       23.69197810499221
N           11.17229084709942       13.71308008872499       24.26473543460786
O           10.13578433911528       14.72475026989872       21.70607161619903
C           10.86058935201804       15.48311587671942       22.67433935445587
N           13.72784550567720       15.18711518023692       20.80029453029861
O           16.47089787710587       19.23397425942318       23.73669985968857
C            9.24293415036610       15.47537204539631       20.90753331289292
N           18.85787143920184       21.65355398898706       22.78763149679883
O           26.05214427575240       17.14162332922170       14.28862991081632
C           11.77000267810756       14.49035715814814       23.37217530130751
N           20.15338428154563       22.07026476563265       23.11176391209704
O           23.74726005216766       21.72190090845206       18.02523062493796
C           11.87635356831474       12.80628919402207       24.91650427758914
N           21.49519164025642       22.37978890513841       19.80525847902488
O           19.80598913762342       23.54467626303619       18.85032542154547
C           13.23330508417074       12.61184466817718       24.71189297829237
N           22.10257127728628       22.73182577623891       16.87440102801321
O           19.98890381916075       20.26665264786173       18.49921926418875
C           13.86644001527869       13.42249100591918       23.78865656298797
N           24.35818289113526       18.65006660383881       14.39376634625722
O           22.23666321441092       22.54979825274183       22.41916931310164
C           13.13967887088529       14.39153602578000       23.09440346910843
N           26.91659533469186       17.88843117604045        9.22042239117807
O           16.14711562305226       21.36354725977623       23.11672752665532
C           13.88171317374538       15.25313165665825       22.16550892511749
N           17.85687155889779       18.54027285572196       19.23834859054540
C           12.90985908059126       14.23804664132683       20.08776155945014
C           13.64688974770067       12.91868278337597       19.85993308522706
C           14.89140636795341       16.13346786825884       22.49023678985905
C           15.39093103962211       16.47040967686840       23.85840081482491
C           14.74756723392559       17.71297935325943       24.51344545904018
C           15.30610081494406       17.86780593881566       25.92978851276850
C           13.22940351976447       17.56328630726429       24.57459347961539
C           15.06106814035569       18.97006436991991       23.69569061059000
C           16.87426136133107       20.45201600363210       23.45043555992253
C           18.36634702511171       20.61187968276890       23.67815032415202
C           21.11010683749183       22.13673163722284       22.17339394422837
C           20.71420175895429       21.65367405265209       20.77636735899750
C           20.99078461318514       23.24256984749583       18.92057752584096
C           22.04865239707783       23.75369989660464       17.92844862096456
C           21.78410355783948       25.17614782479910       17.42455012987820
C           22.91153398215643       25.62985207550900       16.49953327814320
C           21.68825321147450       26.11263769462170       18.62963036876868
C           22.95531326987982       21.72152452527387       17.07853239545199
C           23.01675185457966       20.54035990255639       16.09209674558496
C           23.89838958324469       19.43407680010338       16.67404495059072
C           23.95366959938241       18.24416022244075       15.72120744164897
C           25.35267364048638       18.00600474461860       13.75652717607569
C           25.52946592836245       18.35881834495202       12.37253628239539
C           25.71564698879188       18.47212741029561       11.18802879159988
C           25.82624176498548       18.71439052412106        9.75434597956781
C           28.15404483870391       17.97319876783340        9.96679106722804
C           27.16484596383653       18.04802462121028        7.80268839148134
C           24.48618203436261       18.26351759089632        9.14347481586753
C           26.00745899627845       20.23339422934908        9.54950415212809
C           23.55826650005003       19.69731699156729       13.80359398796668
C           23.54412489392212       20.93286006451919       14.71052557618174
C           21.03383524503224       22.79004113424345       15.89899139755899
C           20.99428742337626       20.14421985796881       20.66971341828935
C           20.09528925091685       19.44079938108127       19.64516110030665
C           18.72145156633984       19.10281921886369       20.25470501783517
C           17.73131391058883       19.47047066788878       18.13253484173549
C           19.12006036335139       19.69947391729546       17.54166769068579
C           20.39965683257681       22.47336749822605       24.48768750781012
C           20.01782840429139       21.32488198159744       25.41791038336312
C           18.55877561559845       20.95206084369666       25.17164674458829
C           15.40714083261699       16.62745087022241       21.25520059138976
C           14.67270943596932       15.99590703272837       20.22600891154188
C           14.99334986789566       16.22674438458933       18.89330594689760
C           16.03325689034875       17.08012008561383       18.60756099036182
C           16.76702536541867       17.74563875784442       19.61380477235964
C           16.44218744535670       17.51135218626773       20.94108410198258
F           21.72912088238497       20.00160046692648       15.94120293629727
H            9.32010602916122       15.43003061822595       24.16292861510658
H           10.56453840148326       16.65185638487687       24.45162968769073
H            9.34078553180797       16.93182748659689       23.21084819007253
H           11.46925332999641       16.23461463722107       22.14153636424731
H            8.34778758058949       15.76110600368304       21.46605311380010
H            9.73248554986589       16.37314648717437       20.51414292027399
H            8.95989961096669       14.82188026648769       20.08504958472197
H           11.32255593874504       12.21664583166663       25.63387894230312
H           13.77292086572282       11.85388553168897       25.25598150013317
H           14.92202033457277       13.31032724236907       23.58701526703349
H           11.99524156021598       14.05627256367042       20.65659796145800
H           12.63790328000668       14.68324683125357       19.12763572854982
H           13.03317261270591       12.25341739633939       19.26010539886181
H           14.58757973122097       13.09516538181450       19.34335471064212
H           13.85716683682230       12.43515061218245       20.81113799763462
H           15.21247148877166       15.62207048887203       24.52154828011062
H           16.46735381223021       16.64035246180288       23.80036812966006
H           16.39079138955377       17.92840617997961       25.90636852153602
H           14.91691471778138       18.76993776186421       26.39612170993164
H           15.01928318484142       17.01445465245840       26.53823174904790
H           12.96763046298543       16.64483505529875       25.09380489521105
H           12.78405243371847       18.40263804542176       25.10286402858680
H           12.81332071282466       17.52481300639982       23.57214065567365
H           14.53600668380992       19.84326018690871       24.09567965311940
H           14.76395084553063       18.83751672285074       22.65143197015786
H           18.88114361031538       19.67572850322005       23.44259640734157
H           18.20859360236144       22.44384421283031       22.81992862625113
H           19.66312339087971       21.87660441774486       20.58326433830068
H           22.48759028357420       22.18172256347774       19.79076549725249
H           23.02638226026792       23.74119756022913       18.42031342126953
H           20.82776788554760       25.20680667219084       16.89838353311573
H           23.04815517368354       24.94474332968698       15.66725167532702
H           22.69209223058538       26.61809010634585       16.10318808720149
H           23.84737588268829       25.68159351333537       17.05261194596337
H           20.81172855922284       25.87509875045421       19.22719227512204
H           22.57041462024547       26.01994660838487       19.25972281470383
H           21.60793372825609       27.14298981130382       18.29424383099655
H           24.89237378960374       19.84286493906174       16.85021538358016
H           23.48832718087714       19.11719679410481       17.63322732709205
H           22.96060986018939       17.78295203165894       15.66054146891390
H           24.67055764822624       17.50164531599680       16.07628751634732
H           27.96342031455591       17.78170101658051       11.02161857514816
H           28.83005255878148       17.20425534614533        9.59439389471167
H           28.65792403891556       18.94802863193002        9.86859424096544
H           27.82142515375377       17.23788961907241        7.48606611660776
H           26.23628672266591       17.96728435203607        7.24631911012057
H           27.65596208303050       19.00056607734140        7.55300770801081
H           23.66394619886059       18.66549083030257        9.72951105149962
H           24.38567708344171       18.61910388458412        8.12273988418107
H           24.42945516041892       17.17903934784614        9.15516522716415
H           26.04663364231785       20.46314665059041        8.48844172282180
H           25.16863072630807       20.76393122370981        9.99107099365027
H           26.92315068217414       20.57759560620120       10.02455447438318
H           23.97109710914870       19.95203055277164       12.82770137807974
H           22.53139950075969       19.33543671772920       13.67653183210931
H           22.92229129313316       21.70280169576941       14.25826742095298
H           24.55405015334973       21.32326257920273       14.83527234938738
H           20.92966383770440       21.85799822992763       15.36015413640441
H           20.09839239092580       22.98635547672138       16.42501429853916
H           21.22044526425490       23.59889349102902       15.19206096376567
H           22.04062809009154       20.02410833555332       20.38372563077306
H           20.85187447001933       19.67191143763252       21.64095771064181
H           20.56335892010518       18.48762671541484       19.34183782025162
H           18.28676635487194       20.01169205356759       20.70324663126926
H           18.88820606241794       18.35833477066874       21.03286553410302
H           17.06494095077586       19.07999068995631       17.36699520025195
H           17.33709952593030       20.43954664626702       18.48560424268376
H           19.08406739441216       20.40733088418407       16.71428800229500
H           19.53386228084721       18.74361748643912       17.18935783207571
H           21.45697230428311       22.72568177559655       24.56337459758338
H           19.79797401230885       23.36107411469649       24.71165573568195
H           20.16103973903362       21.62861199057946       26.45354530091880
H           20.65960995661665       20.46649210238409       25.21411419647708
H           17.91296681394254       21.79589004834384       25.42759845027850
H           18.26602675732970       20.09475379197736       25.77616584164274
H           14.46364447376774       15.73578483951205       18.09096020746725
H           16.31112342183748       17.22028946060289       17.57497349753610
H           16.97884912756824       17.99094645963150       21.74149990339706
