151
 energy: -221.325873498715 gnorm: 0.009115560153 xtb: 6.7.1 (edcfbbe)
C           10.27055777525667       16.31956329697979       23.02695406518320
N           11.43363359434017       13.78049230755935       23.54002486557368
O           10.48690541345423       14.90928864029735       21.01960786822957
C           11.19827928092386       15.63088503961737       22.02470541192233
N           13.92044838102817       15.56088638239106       20.29810637795419
O           16.76212866920865       19.35062187332844       23.84375590205706
C            9.74541464836647       15.70681565246015       20.12353765342425
N           18.88779905445003       21.92994719495370       23.31104585067321
O           27.39649793899042       17.92416836665852       14.69777535522997
C           12.07160644729282       14.60394969466806       22.72038151779716
N           20.21031546839373       22.35422531243401       23.48884216380345
O           24.21173857683070       22.31243444870261       17.93536984284082
C           12.11253390507344       12.84266846786983       24.17556851946656
N           21.27932551851143       22.34150897784150       20.05072004923063
O           19.52976600714354       23.14246512717858       18.87564714535663
C           13.47950069555632       12.66403559925876       24.02920212552009
N           22.09362569232368       22.21908736175129       17.19413238146982
O           20.36231302014453       19.47354162318393       18.92850081621578
C           14.15537639680489       13.51999587228262       23.18022900350939
N           25.24994436670690       18.55246312154140       15.07875740153828
O           22.23786329256387       22.70446744426995       22.56493825385555
C           13.45599968140257       14.51949897038425       22.50376174210397
N           25.55923550043122       19.20271647450102        9.57447698429795
O           16.21816423423041       21.50405352867290       24.14673441417643
C           14.19274008369635       15.44809196661256       21.64201418599156
N           17.50799874948032       19.51456685144985       18.87691973923186
C           13.19419889151391       14.60873244848163       19.49473120463900
C           14.14058573979906       13.59656713993354       18.84952803551593
C           15.18602772903314       16.33520965649784       22.00524617200193
C           15.80433404988587       16.50509027118181       23.35811268082617
C           15.15079696814657       17.56468678518374       24.27420945045674
C           15.76709585372278       17.45520115375348       25.67118005653253
C           13.64216951647814       17.34292933031534       24.36330928261548
C           15.37971947862586       18.97767272747149       23.72402217441899
C           17.03851791852594       20.61560154752412       24.07145084635813
C           18.52942522853153       20.86215141966622       24.24515053612436
C           21.07245688163194       22.33869764335278       22.46207075760303
C           20.49452577676745       21.82202619391480       21.14539319950769
C           20.73859538395234       22.98575938187553       19.01232240612709
C           21.75476461622440       23.42594296694300       17.94879703037969
C           21.21479573291820       24.55349850496702       17.05592644506265
C           22.20368625097933       24.87930969720437       15.94100996113732
C           20.95170832125982       25.79967821737215       17.90180851794494
C           23.33074970380246       21.72492764949812       17.31108807973825
C           23.66968480079367       20.36635235596173       16.65737694947131
C           25.05307837826663       19.89984671254014       17.11991075832982
C           25.38753634460290       18.53613764308551       16.51739116693036
C           26.27880734631412       18.22289032243685       14.27759930953901
C           25.96467501346790       18.20249954188461       12.87160915637933
C           25.76569710697882       18.11644411663382       11.68750787463403
C           25.40472590389756       17.92742217993746       10.28524327577506
C           24.89864325969712       20.32897521475383       10.20494858151861
C           25.22902561438273       19.15062085316433        8.16531821040014
C           26.38956250439684       16.88652824964043        9.72447870652658
C           23.96969397652149       17.35360799288849       10.26574534245867
C           23.94771851672341       18.96366524320777       14.61350124726002
C           23.62903434500632       20.37173270296815       15.12753182116192
C           21.00626860779697       21.65474700456551       16.42115445377937
C           20.50011262022864       20.28391912751040       21.18547494412065
C           19.62951254236025       19.57775848350223       20.14276764405568
C           18.26955148084116       20.24541426722369       19.86842249021535
C           18.29111624436837       19.37515075115427       17.66303445985800
C           19.63424464053891       18.71099450678870       17.98567610136442
C           20.57865317759223       22.79879408766795       24.82266198774703
C           20.29140987498664       21.67871122548366       25.82067780574300
C           18.82899881837884       21.24851365877473       25.70432134435641
C           15.55355563558377       17.03480191738310       20.81584285695535
C           14.74924658742242       16.51649640021441       19.77683329378566
C           14.84699601031456       17.00876042275106       18.48086244890390
C           15.76607048655811       17.99671660719268       18.23444236093769
C           16.63054518180667       18.49270426979412       19.23748473581848
C           16.51093017344129       18.01421293225548       20.53416137402347
F           22.73785865828126       19.42508458307288       17.12217114067271
H           10.86354984716062       16.76801380647900       23.81816293763286
H            9.69251552585194       17.09999815378152       22.53830486910656
H            9.60114283553381       15.58107961223619       23.45781280735665
H           11.83143080421073       16.38709139940861       21.53155245123430
H            8.86805277857035       16.14485637442093       20.60200963626114
H           10.36678040748789       16.50375508967680       19.70416833888766
H            9.42332507665851       15.03582722925998       19.33104335171250
H           11.52756708831440       12.21084264848234       24.83004885884177
H           13.99059511388070       11.87851867406488       24.56094273071716
H           15.21798925798014       13.41685628697417       23.01857407669414
H           12.46715964119997       14.09379049260651       20.12539737359856
H           12.64948165318313       15.15481887133495       18.71964185685382
H           13.58291958927577       12.92915167350195       18.20277889922330
H           14.89352806860591       14.10898854126846       18.25876872483949
H           14.64137178088184       13.00760737285155       19.61234084668452
H           15.76376307684803       15.55281078591457       23.88883715723121
H           16.85409577940085       16.77576597971827       23.22618115110546
H           15.50540488859606       16.50244580228330       26.12176399929599
H           16.85091718687141       17.52910794398176       25.61773507219923
H           15.39883140906538       18.25221367536422       26.31203986544887
H           13.43140037191756       16.32488686767497       24.67813362156524
H           13.19891868351564       18.02632376925865       25.08445086640734
H           13.17874765728222       17.50923466379039       23.39528237161142
H           14.78338469645488       19.71017533018791       24.27755474387504
H           15.10365682384350       19.02932968089348       22.66671974973428
H           19.07853819455426       19.95568789335776       23.97366058230276
H           18.25112916059413       22.71594113125491       23.47245715151799
H           19.47683524291029       22.20028759464486       21.03614869110747
H           22.28050063231833       22.31572837038748       20.17579826331990
H           22.67450414631664       23.76071095191188       18.43957872744966
H           20.26205203388160       24.23242485300715       16.62590401908084
H           23.15726991257902       25.19269726324701       16.36468299866022
H           22.38528786177384       24.01893137034370       15.30129820109530
H           21.81535040826428       25.69010063345597       15.32925145239521
H           20.24852725056042       25.57892316233785       18.70120250073670
H           21.87674286309261       26.16700143769731       18.33902641996648
H           20.52443417815558       26.57784566198099       17.27745796059258
H           25.78431307059031       20.64992712382820       16.82261406352731
H           25.06630856234690       19.83126124990794       18.20781485401085
H           24.70463802903405       17.78390011634425       16.92750547455991
H           26.41531521128740       18.25449962455258       16.75279494700693
H           25.13071833980164       20.34305033997122       11.26682076085751
H           25.28480485230816       21.24189067722251        9.75400445504638
H           23.80643029589497       20.32010273305913       10.07493341091133
H           25.74156105819852       18.32132393566969        7.68961647679531
H           24.14844532952317       19.06392652249770        7.97994779982176
H           25.57750961655861       20.07418295170787        7.70438494853587
H           26.50099374637143       16.07391827725520       10.43826962621783
H           26.03031726347926       16.47031801116220        8.78816729125694
H           27.35924051674174       17.34944402117252        9.56833661071787
H           23.25857608124667       18.08597115027494       10.63912744878975
H           23.69440108527782       17.07125326904730        9.25412108889088
H           23.92481575267293       16.47368439649271       10.89987983783145
H           23.92846602975162       18.94478726194686       13.52453606562044
H           23.19828685516107       18.26213746957757       14.99660630818187
H           22.65282131592276       20.66804077731211       14.75620338538135
H           24.37630456652320       21.08078018537732       14.77237334951755
H           21.05760409443195       20.57364154267269       16.40186960523474
H           20.07027037632905       21.93616292262839       16.89851861381541
H           21.00708786174954       22.05717037271322       15.40615994722411
H           21.52629039447288       19.93937871259337       21.04227189930140
H           20.16464718050928       19.96942126706982       22.16987556572201
H           19.44376333094798       18.54882371398179       20.50254151824565
H           18.44524691103527       21.23955253008881       19.44588846498875
H           17.69763076077063       20.35219435140053       20.78929229081128
H           17.76360243933084       18.77812417635507       16.92524092513242
H           18.46669402467239       20.37607887680896       17.26033918043462
H           20.26938868344201       18.62370642530039       17.10491207310369
H           19.45005542191545       17.70418795353474       18.39485063014759
H           21.63493425097043       23.06333347898493       24.79716116072700
H           19.98633726618804       23.68578052828328       25.06863879471982
H           20.50161470254495       22.02821474953046       26.83041011702085
H           20.94291183277205       20.83130338182349       25.60487983827546
H           18.16873901906653       22.07150043582563       25.98825459471798
H           18.62818084270345       20.40192598762828       26.35876427927566
H           14.20775184114546       16.64856398607705       17.69117293023637
H           15.81346884758293       18.42380394877395       17.24565634083182
H           17.14511212520440       18.37746980811012       21.32744238386798
