151
 energy: -221.325888132395 gnorm: 0.007818883855 xtb: 6.7.1 (edcfbbe)
C           10.36332184375796       16.72126647341090       24.86562770297538
N           10.86192185920330       13.97936835848762       24.43360005651013
O            9.76963923972053       15.99527818533016       22.59682046263588
C           10.84489595317823       16.19720775267851       23.51175851816368
N           12.97900664237710       15.85962473659622       20.96293126986632
O           16.97649938092793       18.55467726141370       23.85436335069395
C            9.17699803017052       17.17852053930633       22.10584590772785
N           18.87436550438876       21.25405885376430       22.55881889364099
O           27.32986788155360       17.65612889543483       15.08902707663962
C           11.51371341607409       14.84531018450328       23.67051820205901
N           20.10307337258093       21.89998682311534       22.72751242506087
O           23.72224580255797       21.81255474784370       17.69705650078906
C           11.36539812181280       12.77473345091725       24.63375841346734
N           21.14255169884724       22.22753172909908       19.27768179104702
O           19.35948899323172       23.03795938854533       18.14988720065825
C           12.57628541131177       12.36573394355382       24.09674349275270
N           21.89081088813676       22.10585481855999       16.42683091740029
O           19.78277133257559       19.79254450073006       18.06722340992757
C           13.25889400599587       13.25773345762879       23.29209571882704
N           25.17496943464673       18.31726374724818       14.81621937938619
O           21.97452735455248       22.71959434580901       21.78501448062600
C           12.73001285938981       14.52578457077183       23.04806909180218
N           27.05586305808949       20.53150986050479       10.26062792648825
O           16.31180288715270       20.59835347359435       23.23736162469653
C           13.48154387816461       15.43261479447639       22.17170352551750
N           17.45450518403155       18.46203854572589       19.00885637691946
C           11.82524744324931       15.31695505404222       20.28892179143963
C           12.18462491023245       14.04360662820597       19.52428821934635
C           14.76069486465510       15.91485926770076       22.35173202921237
C           15.67436761905781       15.72824186207525       23.52057286242678
C           15.50159344409155       16.76728483097239       24.65185455124181
C           16.57543203365781       16.53065090641891       25.71601614062576
C           14.11588994742496       16.62657510458839       25.28341340144259
C           15.60818420861660       18.19617441869885       24.10793830773701
C           17.18907389656684       19.79768756632940       23.48060988756347
C           18.66286271224061       20.16670618552561       23.50440079229646
C           20.90960852393231       22.12244193319301       21.67850269961199
C           20.42096801122067       21.57095795269004       20.33961073437138
C           20.56715267573820       22.87591825145255       18.26216484019926
C           21.58263777287358       23.31788353626062       17.19449108910468
C           21.08732110570123       24.49151333707730       16.34276937985352
C           22.09273867127653       24.83374351864213       15.24411207863642
C           20.89101554599155       25.70400093074304       17.25177114208545
C           22.95884303168176       21.40166809576668       16.81869589111756
C           23.31358705885484       20.07338823681579       16.12063800450533
C           24.43022806261670       19.36193982178058       16.89186981745847
C           24.81486080672132       18.06014237964791       16.19178433968822
C           26.43605081245680       18.12825025516940       14.38493858052391
C           26.66380419694043       18.48884033968132       13.01003604587556
C           26.94712132897596       18.79071758915724       11.87951995027535
C           27.16228547831583       19.08000321164037       10.46679486150991
C           25.86800326317356       21.13485659620796       10.83179430929317
C           27.22885288727890       20.96062669544522        8.88874573825136
C           28.57997938205649       18.60052586495364       10.11780173142682
C           26.12163207062389       18.24485358213487        9.68482420052128
C           24.12382331864245       18.93860192618052       14.04646228837641
C           23.74412723828507       20.28527702776903       14.66722985941945
C           20.84336137543141       21.67829758584562       15.51918029959833
C           20.66547762880484       20.05186845109004       20.29674991389542
C           19.71028704238072       19.28006857982370       19.38523126073447
C           18.25733730765113       19.29917053049829       19.87987591519658
C           17.51262620764729       18.96976166760454       17.65359526895168
C           18.97626278427730       19.01881580898185       17.20486758812683
C           20.44242290705658       22.35616729262527       24.06572257629725
C           20.38323861971761       21.16909475730287       25.02264842772596
C           18.98675602899174       20.55701302527461       24.96222107181601
C           15.07857394881118       16.66490279832005       21.17846636959389
C           13.94304528597460       16.60357351065808       20.33779756853212
C           13.94392196799991       17.24710190835056       19.10893669323309
C           15.08662822809374       17.90846328380280       18.71662925011447
C           16.25618996763961       17.92447851281086       19.50166354656527
C           16.23498845611260       17.31247736722863       20.74791670973497
F           22.19943694506522       19.22114522486569       16.14557010260529
H            9.98194807166678       17.73471403508287       24.77164525914104
H            9.58107242617053       16.06753198504509       25.23878864300721
H           11.18728677875887       16.72232065626751       25.57114346081870
H           11.55672285525081       16.91149175616449       23.06507403593621
H            9.92586359204906       17.81712201864655       21.62486207695917
H            8.44039447382475       16.85812303722688       21.37310065711150
H            8.67671415428919       17.74095960575615       22.89732232669615
H           10.76631459658813       12.12398726812511       25.25711490065941
H           12.96722604470510       11.38060916817168       24.29308125723621
H           14.19747856017554       12.98308278133764       22.83305701647035
H           11.04057476805384       15.10731287178077       21.01991369945708
H           11.45450783944137       16.07397886401156       19.59276881711505
H           12.96225521401262       14.25069903580117       18.79301447244261
H           12.54667381210482       13.28226316593683       20.21112858073858
H           11.30823601975576       13.66062097173536       19.01075404326797
H           15.52264375783744       14.74026521598450       23.95702837823010
H           16.70137455651620       15.78304681289884       23.15676219566819
H           16.47890464790059       17.25724408343598       26.51810247186736
H           16.46874599771541       15.53505536452313       26.13552460485903
H           17.56785107212344       16.62398393510918       25.28295259098433
H           13.94747829363853       15.60131443368123       25.60246526555704
H           14.02124336863437       17.27742544496068       26.14906278489696
H           13.34959074597386       16.89361608518493       24.56327408355004
H           15.21076980394426       18.91292811992666       24.83463000627076
H           15.03856600751851       18.30824403057368       23.18022877848319
H           19.27369379160114       19.30868132156155       23.20980895046074
H           18.10160663957230       21.91713451998691       22.65334994428949
H           19.36314151588310       21.80535556640389       20.20928278758828
H           22.15123152027975       22.19022359529339       19.34046478462386
H           22.51181364276324       23.61257092407641       17.69303159152963
H           20.12052173655166       24.23195032618406       15.90563608764121
H           22.24795384761170       24.00439601572883       14.56033395886497
H           21.73542130819490       25.68731781389836       14.67487359555132
H           23.05170260268115       25.09228470742950       15.68715531299556
H           21.82317208760849       25.96026929903252       17.74986926817070
H           20.56342671896955       26.55746563597626       16.66630774667685
H           20.14010672316950       25.49846946491946       18.01045692213646
H           25.28576067630864       20.03351642828099       16.95698988310258
H           24.08890089484180       19.15098002346026       17.90546743306612
H           23.96721654794215       17.36957738982749       16.21066843100693
H           25.67077653793308       17.59911547892563       16.68541409923471
H           25.80327859183294       20.88420656501672       11.88816359189705
H           25.96186286765978       22.21573422096020       10.73994086300165
H           24.93878108414846       20.82708494005507       10.33040505977180
H           27.35185635181472       22.04287957324640        8.88944419640662
H           28.12653159793661       20.52042182111782        8.46531518543448
H           26.36940920936211       20.71707827764245        8.24709921173726
H           28.75042024576524       17.62399248580806       10.56353151139017
H           28.70980530407224       18.51308192408350        9.04349602801647
H           29.31146389647147       19.29763717926781       10.51540554047922
H           25.11418282451208       18.47339856801047       10.01760420020182
H           26.20165821456463       18.45131101043898        8.62274366965616
H           26.30569667069364       17.18895568125580        9.84890131266514
H           24.45463085288170       19.07249604783998       13.01735194476229
H           23.25088062083342       18.27870358360362       14.06024655755244
H           22.94467205230719       20.74083549988130       14.08694436548596
H           24.60379206613312       20.95523303786029       14.66908486451381
H           19.88399008508960       21.81079562470986       16.02230519035148
H           20.85753557924905       22.29004914041018       14.61655307031914
H           20.94489093142857       20.63609656028117       15.25564059059091
H           21.68721451027384       19.89404159839119       19.94450845473789
H           20.57915812249129       19.63662952220474       21.29782454351507
H           20.03925256342491       18.22480069499897       19.36294578312253
H           17.88216604978955       20.33383303195230       19.86614346492126
H           18.21667961337604       18.93421292250694       20.90147477196104
H           16.98319212565985       18.29751797257333       16.97923936075512
H           17.08015953531494       19.98240868316136       17.58329117303240
H           19.04941631355045       19.47890846536599       16.22138499270970
H           19.37488936902257       17.99495946052239       17.16018749077645
H           21.43968973138356       22.79250004088620       24.01388924503112
H           19.72569395722025       23.12658915206667       24.37050425264696
H           20.60841984105045       21.50061683662520       26.03462769965755
H           21.12699787498070       20.42856994318908       24.72412194000385
H           18.24992460575430       21.28760520200203       25.30440221700629
H           18.91879481625036       19.67268898036622       25.59430868923945
H           13.07667809157758       17.25008165497566       18.46918393252378
H           15.07042536712085       18.43088089286687       17.77509789266064
H           17.11101815520220       17.30551429442732       21.37758109266110
