151
 energy: -221.318290739279 gnorm: 0.004762558900 xtb: 6.7.1 (edcfbbe)
C            9.85300346554443       15.47390970234140       22.97854212389313
N           11.39377651148075       13.40492546049474       24.12478711259115
O           10.53858223974569       13.75182744088850       21.35183208173712
C           10.98844641406934       14.79939166692099       22.21129275239005
N           14.00828179649161       14.87356346704726       20.69998452239937
O           16.09986057681407       19.55732825656217       23.39841223083031
C            9.70341530885579       14.15918396862541       20.28976777766614
N           18.41707316189427       22.21284648905457       22.77526472618752
O           23.90392773582819       16.65051929396031       13.78303691846287
C           11.95589636985705       14.12990302976579       23.16777480056775
N           19.74376179492020       22.50808692462810       23.11494005275211
O           23.48719211366564       21.06388106381680       18.11922430845883
C           12.15651146671720       12.75865416258440       24.98693168691243
N           21.74669691520054       22.40031821777795       20.08459226394523
O           20.72869119734273       24.18976592760442       19.14901869377144
C           13.54217551974661       12.79049918906274       24.94219718683853
N           22.69096692281267       22.94867638824759       17.19122017562979
O           19.61511675321240       20.73396962058480       18.67810832621776
C           14.13692303303101       13.55108907337967       23.95422571649127
N           23.07988299405529       18.75431517859640       13.98641961645351
O           21.93404158937901       22.79187119801541       22.71948934531850
C           13.34562910435932       14.24722093127665       23.03751781438963
N           26.32248357898072       17.38098655919135        9.34448167640206
O           15.74076184767348       21.61500199083678       22.59059455248555
C           14.03109569858383       15.09844131693950       22.05966432694775
N           17.74531423044347       18.64665585995926       19.12882960452396
C           13.46272543976539       13.71011294750305       20.04584284651118
C           14.48580875441357       12.57809296830813       19.96944713687691
C           14.84909304281343       16.16791324439401       22.35393463298684
C           15.15032351329988       16.75132912535575       23.69689192489844
C           14.33568781941202       18.01118365394651       24.07364958005823
C           14.61432457230148       18.35354828539169       25.53909885479106
C           12.84170964386415       17.75106144405084       23.88187086736488
C           14.71911042792560       19.20849394826594       23.19562473707335
C           16.46969336001779       20.78999887290987       23.09326008102602
C           17.91555495430744       21.04411013507204       23.48868252355008
C           20.82112817778187       22.44596693966320       22.32420243314952
C           20.63742569100916       21.93617232682874       20.88340237939213
C           21.71168341504975       23.47071286185847       19.28828820497171
C           22.99128330284186       23.63566896070462       18.45524439325661
C           23.44635341523999       25.09040302690934       18.31406311900226
C           24.76424943846019       25.16053742886050       17.54528506918517
C           23.62429385661627       25.67861707836005       19.71406606850663
C           22.91591353502748       21.62883403600897       17.18282652316886
C           22.52709604920126       20.77376993083486       15.96069854928086
C           22.62715976939749       19.29262013073311       16.32930595187641
C           22.26584265994378       18.41913001080975       15.13251865431999
C           23.81945890558879       17.81205058827914       13.37605449265471
C           24.49453056132474       18.21484746256985       12.17061418010168
C           25.06155675404573       18.33153898948026       11.11407416392227
C           25.69925123511542       18.61686671502221        9.83257641624539
C           27.21260378560897       16.74535375608402       10.29293978860707
C           26.95196810252564       17.48216671028243        8.04429015491237
C           24.57181943666747       19.04600946468899        8.87535332491616
C           26.67752858866004       19.79215035935181       10.04349112744009
C           23.00680134821354       20.13694377833335       13.58006853101915
C           23.40439734220773       21.05986484186910       14.73937472180192
C           21.91542480423627       23.71117647088472       16.23398328968751
C           20.62170114564187       20.40166689694759       20.87179630071066
C           19.82100176496833       19.78483370770072       19.70971284227373
C           18.47845658800674       19.24653853645862       20.21839652898441
C           17.52699295342137       19.62101232154683       18.07646627612622
C           18.88354234468421       20.15626985731741       17.61431234785141
C           19.84458333031775       22.91114506902776       24.50875437826623
C           19.37455215552365       21.75740379720538       25.39244966345158
C           17.95500327368175       21.36134879744139       24.99390464441766
C           15.38570324298508       16.60860145058368       21.11137786446619
C           14.84751586043028       15.77771125129483       20.10477910729833
C           15.21391908230986       15.96544965634534       18.77520205269379
C           16.13069487089148       16.94862764181815       18.47735443771868
C           16.70862189587690       17.76122153421070       19.47350236573583
C           16.31572551319982       17.59379080659848       20.78904168148874
F           21.18700624447213       21.02270872142768       15.62280583955571
H           10.27084723236174       16.18678418392679       23.68196185429951
H            9.18974873940639       16.00217370228148       22.29974288141031
H            9.29658759164198       14.71842996315710       23.52449859728760
H           11.52419554667881       15.54933497170975       21.60495305333268
H            8.71878160074978       14.47210520854461       20.64579292346533
H           10.16368450556235       14.97494905102022       19.72125670744886
H            9.59283349499975       13.28399439299944       19.65260256785095
H           11.62787521220043       12.19519191783082       25.74330984403811
H           14.13045610585007       12.24003760062211       25.65823624601734
H           15.21278360050854       13.60794573971659       23.87221188027058
H           12.58274449129360       13.37148394772536       20.59557892469092
H           13.15349049524256       14.00199368863896       19.03905208907033
H           14.79936444752182       12.28843366561717       20.97005810904053
H           14.04234317998783       11.71562145358287       19.48136375349074
H           15.36239415067580       12.89156139952813       19.40774263354832
H           14.95464588301397       15.99866577522143       24.46230351641136
H           16.21008416739915       17.01106392285079       23.73533980212036
H           14.25923344000683       17.55516536947289       26.18492111209739
H           15.68093271463768       18.48379924441214       25.70213839263499
H           14.10623994641674       19.27391383785242       25.81727729574624
H           12.26000252160370       18.61174442562382       24.20161968198258
H           12.61877559658671       17.55101880238626       22.83703315589404
H           12.54083903260365       16.88745272145663       24.46943187790397
H           14.10964546105022       20.08347158256568       23.44441351119892
H           14.56956078358569       18.97716924272794       22.13702049230301
H           18.49772629285225       20.12739668711966       23.29759801791051
H           18.28576656692098       22.15001201846095       21.77316271973877
H           19.73799203663959       22.35993203379887       20.42598327939558
H           22.60810113862513       21.87377404090019       20.15664241376420
H           23.79994208972520       23.06964930245697       18.92742907616487
H           22.67442337123699       25.66822942359405       17.80154610590082
H           25.54743819949440       24.65604662148437       18.10673930463904
H           24.68524256241729       24.68433582758356       16.57246938592135
H           25.05722223578964       26.19678897776667       17.40296979848971
H           22.67798634256999       25.68341820161026       20.25131012130473
H           24.33871122784165       25.09497959263556       20.29073908290139
H           23.98537397914717       26.70106772721684       19.64536405458694
H           23.64352421464330       19.09177403690768       16.66703635218163
H           21.95079881316943       19.08599157605421       17.15915287098109
H           21.21167833044414       18.57131901972132       14.87264688856277
H           22.43047088198372       17.36546548196317       15.36433542757564
H           26.71467216517667       16.64351820141045       11.25554165588719
H           27.45198600731289       15.74888495003864        9.92189831800390
H           28.15905563812654       17.29101963038422       10.43651185558489
H           27.88222645573530       18.06985123817232        8.05625725955482
H           27.19726691714347       16.47286551898084        7.71433872515717
H           26.26432055736473       17.91432538231969        7.32463311517108
H           23.90313304780265       19.73586187703710        9.38318667128980
H           24.97683830182918       19.54304698797185        7.99939826090232
H           24.00584108778589       18.17142717799062        8.56830092621800
H           27.44720646139255       19.52535178507235       10.76388458294974
H           27.14730482148410       20.05757353797366        9.10034650813854
H           26.13640401629791       20.65554748248076       10.42012677992412
H           23.67160171884569       20.29371371811993       12.73036277665109
H           21.97732928255459       20.36402909126920       13.27975880134032
H           23.30021067564454       22.09644858320591       14.42344714398985
H           24.44066032720458       20.88124100951492       15.02660700991081
H           21.09647779073460       24.19850390618532       16.76317737024578
H           22.54525627021454       24.46989425083121       15.77470950615605
H           21.49365246344624       23.08204067345552       15.46380291177646
H           21.65780750789656       20.06526931015091       20.82307857877104
H           20.20671245592663       20.03277286501789       21.80999461964828
H           20.38022208777898       18.93286567757227       19.28791272668280
H           17.91145243496594       20.07587637097746       20.68135693278180
H           18.68702270542297       18.48065950877445       20.96553234213107
H           17.01558833600982       19.15836822045388       17.23458233661964
H           16.91488024133790       20.46392320365720       18.44362459843842
H           18.76218669410154       20.94751717564935       16.87496531357756
H           19.46516299957155       19.33225188589546       17.17711691728140
H           20.88402616511270       23.17439345058418       24.69999906029350
H           19.20435303586916       23.78361076870646       24.65449135371859
H           19.39472665644951       22.06944500251269       26.43448323761973
H           20.04949009275789       20.90893486065550       25.26973487944391
H           17.27445431527958       22.19152982145578       25.18470809361045
H           17.62211034209984       20.48984089896708       25.55591722736441
H           14.81263605405753       15.34742801450101       17.98666239851330
H           16.44165403216773       17.07731382274812       17.45233057514535
H           16.72736730214011       18.19089084095421       21.58334937797767
