151
 energy: -221.312431506139 gnorm: 0.007979453546 xtb: 6.7.1 (edcfbbe)
C            9.63532761614574       17.25291714205308       22.86170148959469
N           10.36824680721925       14.93991539246546       24.27400905706042
O            9.84197233496911       15.29676571521934       21.37628308513543
C           10.54343267908048       16.19825096191240       22.23129402074963
N           13.41142807865631       14.97879669951527       20.91721141834881
O           16.66844394444973       19.34268760432035       23.17143104783426
C            9.20562876165951       15.89697306318422       20.26828140890857
N           19.17160744657546       21.55212351400786       23.12084156178380
O           27.68553886017300       19.25738658785736       14.45301726290444
C           11.17814895536454       15.32826568214299       23.29914053325862
N           20.55659139985217       21.56463878622107       22.95216611618995
O           23.99547529671497       23.03603729443421       17.74224045221951
C           10.83277869626332       14.15817233829975       25.23276043225798
N           20.74419870238389       21.53141743652475       19.44436836697603
O           20.54037419087046       23.48332478627386       20.51730401550081
C           12.14622056813606       13.70904546551144       25.27657420972136
N           21.84073016936365       22.57150186997162       17.27025913267451
O           20.11672421746485       19.12574464864216       18.14833194442265
C           13.00012056229656       14.11781368255299       24.26859987791756
N           25.46703206125670       19.62037176798528       14.75063597280579
O           22.45681321301460       21.41051828687000       21.76100975759760
C           12.52697046305146       14.94554481789747       23.24940905567975
N           26.47784976045934       17.98391399198731        9.50816264932831
O           16.58394565653500       21.21426145960216       24.40665574704299
C           13.47503301441156       15.40066551835010       22.22553091115681
N           17.99644977165507       17.40839083721475       18.96216815885487
C           12.55555128298800       13.93413431804445       20.41305518418832
C           13.18663826473765       12.55552320658765       20.60329386578237
C           14.55998893931454       16.22977801050350       22.41017423168990
C           15.04563721585246       16.82315438707055       23.69507358475561
C           14.58659053067345       18.26326497092469       24.01379548398539
C           14.96802768385546       18.58598862721529       25.46075175081468
C           13.07284201782272       18.39144760330732       23.84600590690096
C           15.23534234349512       19.28222120321169       23.06362383635217
C           17.20934785418951       20.35015326149501       23.84043110056917
C           18.72983697945990       20.31386203188409       23.76547279635547
C           21.23326232393513       21.29335119329161       21.82932358657967
C           20.45971560233793       20.73743775077394       20.62104890209636
C           20.85466601032454       22.86400404798549       19.50360743544512
C           21.41641952383955       23.56049397827407       18.25506585051084
C           20.50766847717352       24.65806922612170       17.65959604364256
C           21.16077056837462       25.25181947585489       16.41008009476259
C           20.27399567018042       25.77651220086683       18.67292563029756
C           23.15845792947370       22.32264752017722       17.19140923294416
C           23.65070158860962       21.07738975173683       16.42931838356004
C           25.06208502126312       20.72002722931999       16.89935640771350
C           25.54205208380465       19.45960496386498       16.18495728320120
C           26.56434165031352       19.47930202711287       13.99101836262767
C           26.36987714703877       19.55561239894734       12.56599459414612
C           26.40750845855007       19.45366407602760       11.36614955916395
C           26.37826900981737       19.39618061141002        9.90800949966778
C           27.54553024208353       17.24507829127301       10.15141493862950
C           26.51367079172454       17.76172025675372        8.07679826818690
C           25.02293349132544       19.96727931496716        9.45700343112134
C           27.52579127452544       20.29000504554716        9.39430351595700
C           24.15722931807904       19.95751781816802       14.24643725730569
C           23.64447174406352       21.24191533067496       14.90832557543092
C           20.79983274201376       21.93792513084141       16.47474910046425
C           20.96815904784699       19.30677135246663       20.40338485781127
C           20.15386158024996       18.47743488959303       19.40610240729082
C           18.73929656691276       18.19435922906871       19.92643281327503
C           17.97450111159520       18.08843860233545       17.67652686021177
C           19.40920338165209       18.33247690220576       17.21479307871049
C           21.21587925998502       21.71423805469398       24.23639516256175
C           20.86751547728042       20.48477016336077       25.07922169188832
C           19.34974018486946       20.31897480564098       25.17066588067246
C           15.21056589851193       16.31762716086323       21.14529402732841
C           14.48329632840342       15.50452233208801       20.24819069406417
C           14.92409202495641       15.33623302196061       18.94034962871532
C           16.07264011925799       15.98391340466769       18.54791115835803
C           16.79869806404078       16.82502291163471       19.41628831980315
C           16.35463947964835       16.98983568386091       20.71807881614067
F           22.82622401175349       19.99554970751792       16.77699106179254
H            9.25512469473721       17.93473691812710       22.10580582989218
H            8.80817636365595       16.75727715712119       23.36060631285691
H           10.20021743312185       17.82229605296502       23.59364195886598
H           11.33451273132188       16.69316869654860       21.64198212634807
H            8.29054501059956       16.41270465344309       20.56335197991317
H            9.87660962996648       16.59971835075051       19.76725677816017
H            8.95652973744590       15.08347254621651       19.59121542330068
H           10.11759548175363       13.88925056626613       25.99703912675495
H           12.48463859014560       13.06004396946488       26.06774863452144
H           14.02488778540233       13.78858609166167       24.24648280159200
H           11.59614313444563       13.98039672469125       20.93285943134843
H           12.38151753050525       14.12197656697345       19.35077480644361
H           13.34006085452135       12.35534037462438       21.66120009634350
H           12.53242989058112       11.79026437524477       20.19683523680454
H           14.14789004380688       12.50489551771439       20.09739827077281
H           14.70942736405416       16.18967594743203       24.51860012841472
H           16.13857189770573       16.81274123543322       23.68404605406691
H           14.40544145380362       17.95628436965394       26.14335381970709
H           16.02592951070362       18.40870273874312       25.63068406851502
H           14.75557455498846       19.62838252533971       25.69475438318337
H           12.73484686814119       19.37308020453650       24.16968840701179
H           12.79276681918915       18.25226052260471       22.80559986670091
H           12.56930220175490       17.63469282849611       24.44211910203167
H           14.83964337010261       20.28088294697661       23.27083178565303
H           15.03264235564812       19.00583576470188       22.02770300529384
H           19.03495390327720       19.41327933126892       23.20730000195489
H           18.68674420460215       21.78147720089441       22.26254772265111
H           19.38111689996068       20.74058790508541       20.80522986141647
H           21.01981356951774       20.99945854755101       18.63199010040272
H           22.33109257369979       24.05572330825052       18.60864807672198
H           19.53879426977983       24.22519686215169       17.39498790431621
H           21.28057516393420       24.51814445487253       15.61979756660502
H           20.54949772651583       26.06670322456837       16.03166347531220
H           22.14457774299857       25.64409677589124       16.65857363587000
H           19.89628120495194       25.38246507788927       19.61208645051010
H           21.20722799194491       26.29722080580794       18.87832489835715
H           19.55650358282064       26.49047183026080       18.27725935838831
H           25.72004906470431       21.56303894455297       16.69261995469128
H           25.05442247039248       20.55728806161498       17.97785510051021
H           24.91137838999717       18.61302193255291       16.47741391569841
H           26.57896496005778       19.24272142012430       16.44557971399922
H           27.38055675198003       16.18346085855661        9.97177485043501
H           28.54504687051008       17.50354012857109        9.76963064186612
H           27.52984287794355       17.41990597853009       11.22410632895811
H           25.70742701503477       18.30018125647529        7.58931948529582
H           27.47157924140249       18.05074251933959        7.61907735734079
H           26.36614751219599       16.69631718590116        7.90244720079734
H           24.82811221179549       20.89750987477251        9.98342640053658
H           25.02353156373659       20.17383358681682        8.39190642084478
H           24.23517825592632       19.25613360154622        9.68526159874791
H           28.48888114528457       19.88798360356849        9.70132446370658
H           27.49401554148574       20.35682704806133        8.31018907453618
H           27.42548535662440       21.28908188706923        9.81039095655747
H           24.21145141492998       20.08311770775847       13.16494808073633
H           23.46936730182729       19.13834364610333       14.47987455116369
H           22.64162370404711       21.45507911867157       14.54254620484129
H           24.29812506578169       22.08170382499596       14.66664991100820
H           20.74343499617704       22.39709635319549       15.48716113234049
H           20.96044004734283       20.87090121756286       16.36508553836601
H           19.84724811731155       22.08514547143385       16.97363265372939
H           22.00228281176440       19.37765225307718       20.06274895625280
H           20.96938233710646       18.78017973572868       21.35871772558831
H           20.66138141146129       17.50588468720512       19.28030286275079
H           18.22267577444028       19.14573427941155       20.13538595340215
H           18.83621745968477       17.62514585793006       20.85028696249479
H           17.46017665581013       17.47985284889523       16.93724669511240
H           17.45744065350444       19.05893068922284       17.75995900163722
H           19.42170174491324       18.88292482273407       16.27450674232195
H           19.92434835736333       17.37090991726100       17.08827777231111
H           22.28718789367159       21.79607981161000       24.05773515294072
H           20.84211075556544       22.62504818831212       24.70563446779337
H           21.28820738332480       20.59564752017586       26.07658543305340
H           21.31004381564306       19.60117161901580       24.61435454566815
H           18.91630093910525       21.15809835685484       25.71590862013184
H           19.10078750296174       19.39372436500116       25.68996793924993
H           14.39800344726686       14.69996208528099       18.24501872786615
H           16.43724027695500       15.81833162671677       17.54685843631541
H           16.86968721459072       17.61769230439837       21.42385414196046
