151
 energy: -221.308183642215 gnorm: 0.009524894984 xtb: 6.7.1 (edcfbbe)
C            9.89141631999721       17.44944994064154       22.29220353800116
N           10.32244333772634       15.37365114937371       24.17236300437047
O           10.07916139206050       15.23740989277374       21.23659220427672
C           10.77509071559716       16.24339846959847       21.97310716454950
N           13.57939899239132       14.90689966193135       21.15746267610664
O           16.71553467158724       19.43593221631494       23.03518114588488
C            9.83035217763132       15.55886774351036       19.88504373758733
N           19.39442262531686       21.68414131260233       22.92691415451085
O           26.75607589381658       17.80392383735650       14.78464167940827
C           11.24896634582889       15.56331131274504       23.24581117736306
N           20.77695644549492       21.52258385001489       22.81101925238371
O           23.79783401417954       22.07575826474952       17.87156033298102
C           10.64761714499950       14.76591003562121       25.29948242968858
N           20.73530907907738       21.60670120060683       19.39093701697292
O           21.55310577886650       23.35581909962964       20.53772348109410
C           11.92383481882361       14.29871229742218       25.56871367491466
N           21.73619733815912       22.47599181317965       17.06660011961610
O           19.80051173874778       19.39464906325876       18.02368053102357
C           12.90121461974346       14.49704202721752       24.61024093687777
N           24.67052952987816       18.70323658493290       14.70425997845093
O           22.64903780712147       20.92269907839967       21.71457397710367
C           12.57827728351664       15.14459961289006       23.41942478468600
N           26.73966667197388       18.44248385109951        9.52338330944085
O           16.66278604107062       21.58437333311487       23.68903377151664
C           13.62489110471658       15.42174709857991       22.43322238521450
N           17.94928252790139       17.45864699545177       18.92847560291801
C           12.79533452671857       13.77107608886458       20.74041259555212
C           13.54578094807972       12.46291884778970       20.98365901542871
C           14.71052469641068       16.26093673881271       22.57451680345233
C           15.19563729058729       16.94248886903967       23.81604062521179
C           14.72455552436868       18.39420790121028       24.05541628255185
C           15.21506685960239       18.84309975652646       25.43501716508520
C           13.19811060103188       18.47448027407926       24.00307249656164
C           15.28078462936774       19.34719551579116       22.98650207592462
C           17.27322736964764       20.57685718059889       23.41337816559973
C           18.78636956760187       20.45765454540874       23.43912593159000
C           21.43361727713022       21.09363165353933       21.72064858185425
C           20.58643822622105       20.69287145133681       20.50276655375055
C           21.30183292553737       22.81594776334095       19.46749545237759
C           21.60120251064301       23.49229495137697       18.11843202398205
C           20.62792641535598       24.63798475659245       17.78226965745370
C           21.18916461632804       25.47356833820569       16.62859456323789
C           20.41531947260872       25.55559903294057       18.98599682290146
C           22.86945673761313       21.75541680455661       17.13079597213881
C           23.04494172901570       20.49028403961134       16.26246748994656
C           24.09134587679416       19.57650018327081       16.91215679182280
C           24.33804088455708       18.33089463211086       16.06098187825904
C           25.87849791777780       18.42778310448161       14.18201262253681
C           26.07035885212004       18.89031518549649       12.83094415653698
C           26.32269174448689       19.21907768559608       11.70013208578138
C           26.47957029928188       19.65347257102106       10.31385684542419
C           27.96767331250959       17.76280895079802        9.89117234399131
C           26.64660231794979       18.60105614565169        8.08768516453650
C           25.14506781642778       20.29792061754948        9.90714819831432
C           27.59958782485522       20.71317210614751       10.25723929686995
C           23.65775818734043       19.49860434143771       14.05519495221332
C           23.45508722565238       20.81082108813072       14.82252881504876
C           20.60542316270299       22.21176032638008       16.19451214079715
C           21.06922986764400       19.29990429321938       20.07101002727822
C           20.10327163517260       18.57248180729920       19.13509064250486
C           18.81853427221250       18.15183992314284       19.85685612238166
C           17.65121312285084       18.31825806971530       17.78889802294012
C           18.96093223737185       18.70743052499018       17.11430521312216
C           21.38639436728014       21.49994595925573       24.12756113664948
C           20.82971300749339       20.28593857492945       24.87914601482838
C           19.29975447782768       20.31584465696602       24.88301307611809
C           15.35985156273885       16.27950739371270       21.30581881670687
C           14.63734601578574       15.41351697052926       20.45537202220815
C           15.02285200071623       15.22091141584746       19.13254050979547
C           16.10968703501036       15.92116670252545       18.66730461415777
C           16.83378836848385       16.80219513682490       19.49535413977393
C           16.47186972352293       16.96619505412671       20.81829464624877
F           21.84246719379753       19.77076704652405       16.22817969233639
H            9.60667669344824       17.96601204987105       21.37980103083321
H            9.00187960190877       17.10950993300067       22.81411688196295
H           10.43627026531255       18.13969518726559       22.92985424695397
H           11.64765549914752       16.56999911066388       21.38266681856624
H            9.12888062404935       16.39218638675611       19.78491029800943
H           10.76537461881922       15.80950662499295       19.36749906191293
H            9.39327943788870       14.66425285994545       19.44556635088611
H            9.84470386410793       14.65148541577177       26.01475711089178
H           12.14562011445694       13.79674680630781       26.49650511512599
H           13.90977093501643       14.14446093292063       24.76799732656389
H           11.85175880564043       13.77160352304120       21.28946155210933
H           12.57456795980302       13.87828617979333       19.67591829690693
H           13.77335025050230       12.34911956970171       22.04130507567865
H           12.93472426009875       11.62395020925459       20.66718049043395
H           14.47802245658408       12.45126891010464       20.42282766693957
H           14.87963278427157       16.35909150639281       24.68272506286604
H           16.28758699539012       16.94528919179248       23.79122588266046
H           14.73919785729803       18.25123206629043       26.21205863800640
H           16.29237268508931       18.71818164498062       25.51852258601886
H           14.97968323869901       19.89153118924460       25.60413384044362
H           12.86025586662358       19.47720685952145       24.25451834480589
H           12.83859155233709       18.21938874415507       23.01000339760336
H           12.76633616811310       17.77656789503224       24.71819350924155
H           14.87304912676518       20.35220811122389       23.13384738941789
H           15.02943398897082       18.98709652907039       21.98696095010684
H           19.07423042331853       19.56366549225284       22.85947496170896
H           18.97866815271918       22.04957333981955       22.07936591311699
H           19.52608721529982       20.64746417945308       20.77077164010169
H           20.55376118526096       21.15800785679696       18.50035471192887
H           22.59692169409318       23.93265800384814       18.25797929211774
H           19.65591992754711       24.21819306821455       17.51183161197890
H           21.51730669285511       24.86029422407876       15.79510453813513
H           20.43291394817064       26.17078590957513       16.27607232519200
H           22.04601026537582       26.04507370395379       16.97724823642413
H           19.91657166682432       25.04092123966793       19.80423955836416
H           21.36933149691260       25.91902563931482       19.36391339374501
H           19.80650301406279       26.40694604903980       18.69062672746827
H           25.01159801709378       20.14763986340465       17.03825066059879
H           23.74629656354917       19.28215262985318       17.90481974915174
H           23.43989737601978       17.70565779465822       16.04634012491543
H           25.17040060654971       17.75528144675860       16.47094658987588
H           27.90933728878026       16.73145456492455        9.54283519331284
H           28.86332485816864       18.22565919017209        9.45142219743738
H           28.07124923235417       17.75192994520637       10.97482778870476
H           25.65206654175179       18.94164949685009        7.81236478909903
H           27.39522420222629       19.29350990870264        7.67100899152280
H           26.80619055544172       17.62290019822357        7.63633032963048
H           24.85518757309172       21.02040871094214       10.66622054116167
H           25.24139553325672       20.81951223016222        8.96015251766022
H           24.37324571013112       19.53775171986300        9.83082204878918
H           28.53070671824809       20.31249443376772       10.65181812963135
H           27.75506723832524       21.03389316215035        9.22944011664342
H           27.31683501615762       21.57662185011278       10.85487248752014
H           23.95675133650939       19.69696163960657       13.02648499780605
H           22.72017177168835       18.93419746015055       14.05751422563548
H           22.69667885137660       21.41020305973089       14.32226105656156
H           24.38538597450767       21.37785619401173       14.85501322208177
H           19.78079181780560       21.75486992635813       16.74129974459826
H           20.26446777778628       23.14322278665775       15.75411346194382
H           20.89098729602195       21.54422908533489       15.39238860066064
H           22.03979285931283       19.42927859458504       19.58844210178192
H           21.22606987434575       18.68140702239884       20.95544752210144
H           20.59615066925397       17.65660626789756       18.76900099260410
H           18.32016136688425       19.04650037459134       20.27277220645803
H           19.07902239083219       17.47466245920194       20.67224120070804
H           17.01311761056313       17.78815450548168       17.08662798797363
H           17.13323941271176       19.23330617745117       18.12111485792641
H           18.79009523636426       19.38979364600188       16.28270677766792
H           19.47538256312699       17.80821218344272       16.75432846627598
H           22.46609571884057       21.43614780950919       23.99783108145014
H           21.12222971449276       22.42751058104752       24.63650677508205
H           21.20273250978403       20.28653945471087       25.90129653457786
H           21.17902044393271       19.37769895001885       24.38247902188861
H           18.94684465672952       21.17947778056419       25.44578083356157
H           18.90453343040795       19.40628098622885       25.33388451429649
H           14.49017027086346       14.54364871274274       18.48359897547346
H           16.43102712970828       15.78076646047676       17.64737294025979
H           17.01847430176349       17.60905087261901       21.48504047902442
