151
 energy: -221.324176586875 gnorm: 0.008658437986 xtb: 6.7.1 (edcfbbe)
C           10.09061854037516       15.96178809634199       24.26542676124273
N           11.41415068777859       13.45788730814439       24.34316138331498
O            9.90178418275783       14.66208714265376       22.18025800507976
C           10.79302963253002       15.37608994536796       23.04006674335564
N           13.25312187451844       15.59328254226657       20.76750566304472
O           16.69921557375061       19.03056593661735       23.85865200687661
C            8.96787869666752       15.46076461963392       21.48589143737120
N           18.87925637698900       21.58681180063635       22.73125357863165
O           26.85571266087031       17.30875085991742       14.70038120284628
C           11.83206215675053       14.35347963889881       23.45934405090716
N           20.18335284195316       22.04355003353779       22.95854771331345
O           23.99467011018649       21.67965757573104       17.99668125104811
C           12.23232761804477       12.50168590627541       24.74268337635003
N           21.41642435376916       22.37185001514058       19.57941190210633
O           19.84354964594300       23.62294140671773       18.54052708653506
C           13.52856849352040       12.36969848802125       24.27039212356589
N           22.20369269890730       22.29717046839466       16.78637737217441
O           19.52339368525843       20.51358350196794       18.26218943396404
C           13.97742091897788       13.30627698342591       23.35991729701050
N           24.75334560458784       18.17128124732465       14.77430704573004
O           22.21762323888711       22.53380904036383       22.13661020404748
C           13.13260912593475       14.33490643055285       22.93727399840378
N           27.35512403094421       18.67243524317010        9.59222493385861
O           16.20227430253570       21.13567259576963       23.28081491443076
C           13.70135983319708       15.35199030698236       22.04705907180706
N           17.18318053641769       19.14945039858631       19.14598067554305
C           12.33178466940402       14.77424974342584       20.01907630980535
C           13.07650727445503       13.73604756787790       19.17986532538171
C           14.78987396336447       16.14964944648999       22.33060019451371
C           15.57316037237058       16.22229790278442       23.60226745546019
C           15.11710339939234       17.32355447925451       24.58761051141229
C           15.94592763452880       17.21056087755749       25.86959778802108
C           13.63439608530583       17.15240385040120       24.91539502640987
C           15.30119974756088       18.71582786212698       23.97378785697416
C           17.00988101552854       20.27079709077533       23.54416754058945
C           18.50317771121925       20.52551519019810       23.65854355290082
C           21.06969563860391       22.14340060412554       21.95554704293929
C           20.56717469359492       21.74902907226689       20.56563058357765
C           20.99081806628070       23.20985497066475       18.63034193648125
C           22.09042163163886       23.51424718383067       17.59770022786618
C           21.83162914354152       24.77901077090428       16.77001158674707
C           22.93150060406855       24.97171047000924       15.72816122284761
C           21.78845977053662       25.98530623746603       17.70756311348572
C           23.17384732830278       21.43583381389277       17.10821195559757
C           23.30336726836967       20.10572944605990       16.33637834397901
C           24.42272782015172       19.25717496915867       16.94565191472807
C           24.58564606225604       17.93589678860517       16.18989994068192
C           25.90292417062999       17.86192429841243       14.14481851325616
C           25.93570829869350       18.20244397067663       12.74576027620377
C           26.05551540545260       18.44721981036606       11.57193490136042
C           26.01327049043740       18.82678496085514       10.16315934733321
C           28.39275629177246       19.36231911586632       10.33040250260154
C           27.45649028944036       18.96052277699895        8.17699747049017
C           25.03325939272365       17.85580301519963        9.48034057951230
C           25.44349297073656       20.26244743930233       10.09867512116423
C           23.67154038512148       18.91518943472451       14.17538295656704
C           23.56165245007411       20.29082421869473       14.83910653313695
C           21.10292614655725       22.07120000145451       15.86931855936313
C           20.60820209637795       20.21963428725412       20.39633000530745
C           19.55754012725503       19.69069626967205       19.41383451669684
C           18.18188392329257       19.60157931057527       20.09145694033660
C           17.14845884139571       20.03994811120010       18.00594670830552
C           18.53666879993607       20.05893228505165       17.35851553345217
C           20.51104846102351       22.46909711271460       24.31213749823967
C           20.22398730144933       21.33061396605023       25.28763017819287
C           18.76752201889116       20.90020624693121       25.13307397680725
C           15.05128914941010       16.90470574158226       21.15018743389394
C           14.08367087930955       16.52415601761830       20.19706385508917
C           14.11183332507490       17.08079107102244       18.92492076471707
C           15.11636151355342       17.96977831445989       18.61305462844345
C           16.11934159447353       18.34680237731094       19.53597793630552
C           16.05070027352386       17.81623518955089       20.81831396913212
F           22.10203602123251       19.39201145606765       16.50663380194171
H            9.57743255338690       15.16346316561862       24.79311450000813
H           10.82784031457826       16.41002902839320       24.92449373229414
H            9.37514967633513       16.72497767921737       23.97072708142498
H           11.27402577480872       16.18357472739557       22.46376038123790
H            8.27074027384052       15.96099118944125       22.16873193628352
H            9.47834831947722       16.21693900477984       20.87232925383924
H            8.41671301958647       14.77139649264726       20.84492045583882
H           11.82285192449456       11.81842677389934       25.47378591257056
H           14.16544099238039       11.56884354118401       24.60989505273501
H           14.98170032841510       13.25486433673232       22.96079964186896
H           11.65410063265628       14.27507224491094       20.71436005922549
H           11.74375084552165       15.42885204203467       19.36769080568337
H           12.37200254684155       13.14279524494632       18.60687185458387
H           13.76318966026947       14.22807547082704       18.49465573355700
H           13.64798602585880       13.07468583744384       19.82720919938353
H           15.50123096674771       15.26930105871774       24.12798922196389
H           16.62179031805116       16.39857279575457       23.35448375241480
H           15.79929788489011       16.23564758350978       26.32455197291167
H           17.00236269252246       17.33377531480874       25.64809082450762
H           15.64740766337197       17.97397500801742       26.58437166143790
H           13.44670279454085       16.14283023573589       25.27380248970968
H           13.32775649191591       17.85649958115866       25.68570186309001
H           13.02913185446177       17.32165744251967       24.02859857665232
H           14.83209170368807       19.48305255294998       24.59917014769519
H           14.84761387638905       18.76652974031763       22.97926880830352
H           19.05988053413342       19.61913763899788       23.40222096387119
H           18.20979477294048       22.35368771487521       22.82893635299929
H           19.55729778008098       22.13893662787979       20.41286229878660
H           22.39906052942964       22.13737547532736       19.62994029258961
H           23.04409618681722       23.62945078626916       18.12347017166742
H           20.85897404642636       24.69710435204959       16.27976845319928
H           23.89898332036753       25.05003872585453       16.21968563492247
H           22.97477484539388       24.14275778940507       15.02803326173781
H           22.75332069219676       25.88646178789658       15.16973175625288
H           20.98129224421861       25.88126130578507       18.42688593946668
H           22.72756005600496       26.08313715044232       18.24879968453925
H           21.62269731522748       26.89338537801727       17.13390804578414
H           25.34590319628226       19.83354006545560       16.91216389550607
H           24.19416868317349       19.05374229670524       17.99223618382597
H           23.69617561512373       17.31547204714182       16.34073375801140
H           25.46516682900006       17.40051516222931       16.55100514987068
H           29.35804574780293       19.03414919759789        9.95135670851026
H           28.34368311761395       20.45595331246567       10.23151834440507
H           28.32850128687737       19.10348193571992       11.38310530595088
H           26.72210178580681       18.38510509150268        7.62283358228751
H           27.33621453508501       20.02844592579855        7.93948091785080
H           28.44784706477917       18.65303355888343        7.84591986926408
H           24.15108343299564       17.73083566656143       10.10325521739643
H           24.71995888154332       18.24096988130873        8.51406605722775
H           25.50812982357743       16.88735918222227        9.35021722294722
H           25.36298045837177       20.58457945208230        9.06405231312051
H           24.45487026083234       20.28146839960980       10.54776617217778
H           26.08298449592546       20.95496189530267       10.64039309249643
H           23.85332899123087       19.02128573793250       13.10720720672067
H           22.74026106684074       18.36234551888470       14.33204601694077
H           22.76659371896367       20.86030003623279       14.36718679852510
H           24.50147227266302       20.83076836023526       14.72774211647504
H           20.94948619479168       21.01459785164790       15.69067121631552
H           20.19974895986675       22.46470165398563       16.33248637082233
H           21.27664699563997       22.59600075907176       14.92957428135191
H           21.60572290232826       19.95573006530026       20.04255687046108
H           20.44731619190555       19.73820007735239       21.35828672965921
H           19.84316375340008       18.67131258817627       19.09967796184227
H           17.91158796709052       20.58176682152779       20.51115100022719
H           18.28300996041518       18.88892889696156       20.90579791686398
H           16.42345642393488       19.71340552299357       17.26558804718906
H           16.89936476277356       21.06384340715820       18.32598915574765
H           18.55153078688988       20.75299978393793       16.51862867510800
H           18.79575849468638       19.04832163089574       17.01137385223881
H           21.56348059470364       22.75151837792332       24.31419205211161
H           19.89986001523034       23.34519189975678       24.55955974666806
H           20.41334826942040       21.66538782620332       26.30623062495276
H           20.88487876510918       20.49055369144237       25.06825406993333
H           18.10541720815350       21.72635177393787       25.40866488997710
H           18.54196949166262       20.04653505208657       25.77159702655845
H           13.37262307984577       16.82426807108576       18.18179508430051
H           15.12762572853175       18.36608067041276       17.61139545295171
H           16.76615279038484       18.07112035841884       21.57882709933700
