151
 energy: -221.320837302705 gnorm: 0.008931887059 xtb: 6.7.1 (edcfbbe)
C           10.87145808011228       15.45088262800531       23.37609981971361
N           12.33716170384422       13.05850048502173       22.98064812924201
O           10.73081807288109       14.56117216141453       21.09960867431315
C           11.60222330165659       15.15005835609441       22.06655165125797
N           13.89863278102948       15.96061063749015       19.97804635421260
O           16.96383210515899       19.05343051773492       23.96415227614535
C            9.80289583891188       15.43497194292594       20.48334985173947
N           18.60738684749972       22.06749737257417       23.33399372482687
O           26.19220363892536       16.96306120957598       15.23448158905013
C           12.70595751107780       14.13233074958747       22.29851626099860
N           19.86134922913357       22.64061231035105       23.58188284612018
O           23.88312311935731       22.07509598231986       18.42368256842659
C           13.21642116873876       12.10421749511652       23.22493255390412
N           21.17711400317053       22.92823182520956       20.21968982886172
O           19.60562487134287       23.79391141177971       18.84902369488136
C           14.53054082273847       12.15748110850416       22.78712686400815
N           22.06229234094375       22.70461730284455       17.27021422638965
O           19.65542354986118       20.61282803092136       18.69777927298557
C           14.92834733662213       13.27598173546871       22.07973282428503
N           24.43758273116081       18.40525600369729       15.30258963864095
O           21.89792395559891       23.19177159740173       22.79176117019959
C           14.01845620278080       14.30308285556209       21.82609538794894
N           26.22659466860564       16.98608147097872        9.95814088526207
O           16.00371494512619       21.07951140178665       23.87155868808305
C           14.47599564732827       15.51803620200670       21.14776851322663
N           16.82118695452460       20.58107109847754       19.11822186513287
C           13.12590796501693       15.15229456946726       19.06734841876120
C           14.03526083533358       14.39602337409860       18.09944971148041
C           15.44898458753812       16.40427567202558       21.56482477507224
C           16.35616025994989       16.28905196108941       22.74947951996003
C           15.82613587435609       16.89659195657516       24.06730021888374
C           16.81200551426270       16.56520617206274       25.19194254656700
C           14.45231113476294       16.32315023968891       24.40936916507054
C           15.67537042436621       18.41766044958850       23.94298300107522
C           16.98377474559641       20.37248243773135       23.96838452860733
C           18.39048087046807       20.90332878734703       24.18694328504037
C           20.76530138489564       22.76523772596582       22.59767757536494
C           20.26902724621881       22.38678348599569       21.20240206986866
C           20.77844876736375       23.55047736538337       19.10746000466413
C           21.92729151579356       23.87561694559350       18.14020373599218
C           21.70565039637519       25.18774911745691       17.37582347385049
C           22.86533708320191       25.44883668223968       16.41825060163199
C           21.58291231211702       26.33006408157398       18.38358459890861
C           23.04556959544954       21.84378530796617       17.55255916086786
C           23.14926112200868       20.51185603768947       16.78036627837091
C           24.21298572130604       19.62392189835658       17.42806804166957
C           24.26188436955459       18.26805469543142       16.73233835885092
C           25.35096748933534       17.65592457797955       14.65640456741433
C           25.24260151993725       17.65115126749796       13.22050426258903
C           25.17620271572431       17.42020768277219       12.04014090859028
C           24.93188511492653       17.16740895377396       10.62170586297963
C           27.11563123899622       18.12117935308720       10.09492476425804
C           26.16373033781588       16.53998538238671        8.58293177985694
C           24.11643388717356       15.86414521163621       10.57765073599221
C           24.07746811887149       18.32789748471011       10.06631770070096
C           23.48204294640919       19.26393059603310       14.64304416098478
C           23.47465157102203       20.65350662719420       15.29188372688076
C           21.00937353484290       22.53656124569831       16.29212426650686
C           20.14539790959541       20.86122083669737       21.04608893980847
C           19.12849356517563       20.39650569730417       20.00003507658590
C           17.74738698013730       21.06898316570871       20.11915076209658
C           17.39940346490261       20.79561524819868       17.80190475197882
C           18.76674562905620       20.10943528919564       17.71926240225377
C           20.14066205660604       23.03335490865059       24.95519477790039
C           19.95298266523266       21.83679709386132       25.88620893231553
C           18.55910214408802       21.24613822231405       25.68021954195767
C           15.47980064858093       17.45172888008975       20.59445313808032
C           14.51192781417922       17.13059648585668       19.61739293558185
C           14.29640564275759       17.96659701650490       18.52862369255976
C           15.07526548873161       19.09104539637272       18.41330179553625
C           16.09577683577234       19.40623305833502       19.33749550323774
C           16.27274861279573       18.59294799966566       20.44727467938522
F           21.91801977985072       19.84765535316173       16.90615666281018
H           11.54546017282903       15.94676916426050       24.06876372596815
H           10.01547547142535       16.09526613976270       23.19508225697196
H           10.53066667968417       14.51602103288600       23.81389068611541
H           12.02939201433791       16.07742870469365       21.65260007474772
H           10.13826741590470       15.66881402876113       19.46993714100510
H            8.84617128155515       14.91706240420062       20.43277221502832
H            9.68131058114538       16.36509702538848       21.03483509917170
H           12.84340012319148       11.26672705454510       23.79806396646117
H           15.21902633256353       11.35305365594166       22.99481424742747
H           15.93753873530037       13.36246110111656       21.70527675918923
H           12.52023894230395       14.44566462364704       19.63738730306638
H           12.45972593073399       15.81474365102345       18.50926790589327
H           14.69566709843181       13.72936533444109       18.64972599903724
H           13.43698032530149       13.80533917861264       17.41220720955915
H           14.64301156956456       15.09541167495481       17.52967117357085
H           16.57032271493781       15.23622304476925       22.93948083530082
H           17.29892422618929       16.78519814464847       22.50450478173646
H           16.85090046249014       15.48994742291398       25.34222715946661
H           17.80933224533581       16.91849630730128       24.94394760517164
H           16.50153593842895       17.02975498926536       26.12334927418301
H           14.10937411533240       16.69985705631341       25.36945711952960
H           13.73177311070583       16.60269963132970       23.64570478521647
H           14.49784536746242       15.23876630426199       24.46006092823754
H           15.09452227015531       18.81702427957212       24.78043246320400
H           15.16112735549996       18.68627327023085       23.01585303169897
H           19.11054932543976       20.12586790301014       23.91362184132588
H           17.86461105004339       22.74618094787285       23.50759878341836
H           19.29898771497390       22.86579475076690       21.05206122713844
H           22.15844240648446       22.77147538741629       20.39226026757555
H           22.86252464960223       23.94976998169676       18.70412245097437
H           20.76597396615901       25.12295302377843       16.82164698581970
H           23.79408266308299       25.54361717454976       16.97701766590690
H           22.98376404449929       24.63979027887524       15.70298688137094
H           22.69572173149483       26.37211090124281       15.87169154586744
H           20.73010992618315       26.16642235534248       19.03579553025090
H           22.47972762912323       26.40120623167839       18.99479197460536
H           21.44161821710197       27.27238972793723       17.86229750837107
H           25.17227019911741       20.13590958502314       17.36224586379705
H           23.97953753445187       19.48393807660356       18.48373176835977
H           23.32084035132598       17.73537408286509       16.92067679314690
H           25.09171905966523       17.66952557865540       17.11391715828337
H           26.82901853889017       18.97816327642087        9.46456078192816
H           27.13997716480363       18.43882523404216       11.13718672027263
H           28.12012088227049       17.80640752823808        9.80646925596530
H           27.18302431671022       16.34903749361870        8.24905590195579
H           25.60775865819968       15.60946390784177        8.51505253406579
H           25.71679836819601       17.27981627880252        7.90099822074608
H           23.30578906908674       15.92070488593924       11.29916594004671
H           23.68764940957072       15.70877800614738        9.59248894466675
H           24.75298779725927       15.02228052910761       10.83570829147489
H           24.58748491531721       19.27890883983128       10.19910060324573
H           23.88153053980499       18.17276425797142        9.00854840915411
H           23.12898656152888       18.36510193527799       10.59472497519645
H           23.74752669300661       19.34432192050011       13.58843983809728
H           22.48120937042764       18.82461244037175       14.72758016276988
H           22.74512298843128       21.27707082929269       14.78049516486776
H           24.45637561534895       21.11850820264579       15.20537356262238
H           20.91729039130525       21.50489993539042       15.98181310728743
H           20.06674796110250       22.83515852325880       16.74968182716604
H           21.19855261463763       23.16814734052026       15.42343547238388
H           21.12300498280138       20.46865740141244       20.76018144422467
H           19.86045779430097       20.42097444584777       21.99660856312081
H           18.99893356619646       19.30594018017118       20.12404122690496
H           17.86395072218892       22.13735418069624       19.91329727144821
H           17.33404865580557       20.94488335883025       21.11925968658264
H           16.74945395435962       20.40474314868554       17.02322684322359
H           17.52877340633078       21.87416696068192       17.66319190371296
H           19.24217455841429       20.28363302464496       16.75592922684876
H           18.63857178125912       19.02457068297851       17.86774971788486
H           21.16083639905899       23.41360892136063       24.98418450515712
H           19.44660183802461       23.83475263245748       25.22888569015227
H           20.07724142338253       22.15874587844787       26.91889372956132
H           20.70968382075704       21.08294127991249       25.66439492124310
H           17.79433248240409       21.97504474498586       25.96229114875373
H           18.42186204066993       20.34917437264639       26.28422448964903
H           13.53200907061296       17.75833633681570       17.79657374055709
H           14.88973677617543       19.76944966787237       17.59638129578229
H           17.02060405518378       18.81490431332619       21.19235132885126
