151
 energy: -221.320813733293 gnorm: 0.009605095685 xtb: 6.7.1 (edcfbbe)
C           10.09125901657685       15.47755959528916       23.67100810244970
N           11.70863197432783       13.21285835295168       24.13577855792845
O           10.48263194649692       14.12430478922105       21.65252209298517
C           11.08899596413429       14.97300069376228       22.62601144150491
N           13.95469974992076       15.15373947642412       20.70900445632413
O           16.34385506074207       19.52414420633134       23.90529823324746
C            9.57368722077704       14.76746571095002       20.78396778177849
N           18.76254414054367       22.01928643786703       23.10060127505673
O           24.55905562831363       16.74482589229697       14.17429656223306
C           12.15918521833036       14.12520965950210       23.28417452787554
N           20.13969505051125       22.21350607737818       23.25872242924772
O           23.39147443093830       21.56107701396307       18.04426783868661
C           12.56194660529923       12.41145971851783       24.74601510010656
N           21.53968402324657       22.69960564628177       19.98003896437718
O           20.01151677898001       23.92815027362968       18.84757358835826
C           13.93317534988303       12.47572870727109       24.55150441519221
N           22.18158950195986       23.09864999322762       16.93799188244859
O           19.70854623185190       20.82291937039930       18.50879447149565
C           14.41090667166199       13.42248005526009       23.66545490460097
N           23.44186652212993       18.71873994100875       14.24065349310858
O           22.24234678526225       22.53584560163390       22.55326277747678
C           13.52249742315254       14.27114394890716       23.00146213927397
N           26.48969726619743       17.29206523220382        9.49276637767915
O           16.36864781571662       21.05793210161678       22.27413244895431
C           14.10640701962943       15.24937780098823       22.07347874204248
N           17.72902413708213       18.87466524201138       19.10666666118567
C           13.28318274292763       14.08445822948434       20.01320108414778
C           14.14979795135364       12.82695804953327       19.94207993660840
C           14.99116363735206       16.25800996797471       22.38780753431398
C           15.41166623268520       16.69046022082545       23.75633054465890
C           14.61649402644651       17.88013231579785       24.34345072075232
C           14.95752449836043       18.02353163429619       25.82823274012159
C           13.11493521350516       17.65168635336359       24.18268960467063
C           14.97756579763213       19.18152333074501       23.61898471607097
C           16.90715447953070       20.46825328354780       23.18754698778499
C           18.35670830465112       20.70590105219826       23.58733343665964
C           21.06768706130085       22.27088841374412       22.30090273566276
C           20.65294855718622       21.96932887411425       20.85167885912305
C           21.16552665791887       23.55965824549921       19.03059210824081
C           22.32658563319753       23.97310276545794       18.11192692255824
C           22.36676485344340       25.47423904646618       17.81216319798017
C           23.61781306043494       25.82188630211848       17.00710335182511
C           22.37402086041531       26.23429745978980       19.13944089715950
C           22.69690947712228       21.87028612334050       17.07135517098584
C           22.50441297389092       20.81105140083381       15.97002350924196
C           22.88790326761790       19.43396358214341       16.51556207639017
C           22.70880642413223       18.37145136616987       15.43696811546762
C           24.27010994062784       17.82979317544438       13.66460004697303
C           24.79503699422263       18.19598218446477       12.37496695496756
C           25.23106806520583       18.25425038123425       11.25427992203583
C           25.74560563752264       18.48678228244554        9.90857087166738
C           27.51481472098050       16.86881286949460       10.42476078188652
C           27.01737145427845       17.32909614399862        8.14490330266717
C           24.52725569020805       18.68606687584733        8.98967915192868
C           26.58347186940318       19.78472543342290        9.95464759147191
C           23.10586969636627       20.00508040504550       13.67767808792955
C           23.32413316490902       21.11388760520701       14.71367851265664
C           21.24470681536926       23.55242246811914       15.93197000171490
C           20.83854760522497       20.45603924447479       20.60970640403178
C           19.91120048426339       19.87204193524926       19.53570575058519
C           18.57724229913037       19.41580247377933       20.14367774774072
C           17.49877964084890       19.87861220669967       18.08327723697370
C           18.84870837764439       20.30894208191405       17.51077192712087
C           20.47992015157990       22.28912449807964       24.67244471979754
C           20.08518888548753       20.97607877273484       25.34899167070760
C           18.60552260260717       20.68054883654059       25.09774460539189
C           15.44066893272908       16.79524078654938       21.14557201761338
C           14.77948046135469       16.07693744850636       20.12304945186148
C           15.03889456863559       16.35809880732330       18.78656168925784
C           15.97962121982051       17.31668620157799       18.48717447051177
C           16.68035285552460       18.02054601085904       19.48728930470321
C           16.38717795450195       17.76611310586512       20.81658121318645
F           21.15012815473671       20.74037429398749       15.60798945202034
H           10.62501845030253       15.99613953053776       24.46074108501795
H            9.37961614482843       16.16619105348202       23.22554418815624
H            9.56597936406718       14.62724441150097       24.09538231061259
H           11.55491143753628       15.82834823701064       22.11112645758204
H           10.07293406390573       15.57665808662308       20.22909911206112
H            9.23612956752594       13.99575456206234       20.08991095983841
H            8.71141800414745       15.16955662983583       21.32550498441614
H           12.11652127027033       11.69237408186636       25.41948537374907
H           14.60103806121927       11.80855884845602       25.07175616094704
H           15.46865006855002       13.50929828175691       23.46198143917335
H           12.34636427760188       13.85076705306351       20.52479800539240
H           13.05157289587023       14.43543288962691       19.00558842139485
H           14.31868149418306       12.43000364670899       20.94148849332375
H           13.64760275719737       12.06806893856754       19.35085672852659
H           15.11227473457484       13.05105390272065       19.48689663088028
H           15.29727477354545       15.84737402561644       24.44080739594190
H           16.46824587302883       16.96687463905818       23.73224435386867
H           14.65530944162082       17.13275807185735       26.37085052792382
H           16.02566301042397       18.16765425765058       25.95833434504096
H           14.43939501311685       18.87984927532629       26.25217619574118
H           12.55355881016928       18.43112753388089       24.69033075590173
H           12.83701264023128       17.65439640599978       23.13208964704628
H           12.84433988235764       16.68953774790333       24.60893037997535
H           14.34509239468866       20.00437565972576       23.96235044035135
H           14.85427609309841       19.08195664579431       22.53756639346672
H           18.94061041033142       19.89314893775500       23.11435306855202
H           18.45054084516102       22.18344695561776       22.14925332035812
H           19.64024932648418       22.29849114582983       20.60863168182171
H           22.51675991651904       22.45415416758077       20.07217402649669
H           23.27179199537095       23.69311628144029       18.58716371639405
H           21.46771004891652       25.76508023563116       17.26487550609049
H           24.50615048062156       25.61745132547704       17.59951332176620
H           23.68174900512325       25.24059020491875       16.09184049244226
H           23.61035096640314       26.87704157861435       16.74928143908303
H           21.44290529761415       26.07380869786516       19.67868855408456
H           23.19590188037248       25.90206918910376       19.76827550077743
H           22.48568749425765       27.29873171534214       18.95514504733966
H           23.92008431489953       19.47434734074053       16.85846382713465
H           22.25498806755531       19.20410825492959       17.37218384220915
H           21.64718203758704       18.29017274745799       15.18416672074805
H           23.06629813821381       17.40323986060274       15.78414493913041
H           27.11873782693071       16.87156748588929       11.43779158444080
H           27.80510204651311       15.84914433376253       10.17302616596939
H           28.41657857973867       17.49885340926089       10.39253118438390
H           27.85004179858153       18.03840236738271        8.02373357565841
H           27.38913112963182       16.33263940747139        7.90845330716144
H           26.23202282138683       17.57327404661570        7.43650340766140
H           23.80192397479725       19.33327710787811        9.47518236217289
H           24.82501496111887       19.14744312157540        8.05318563625830
H           24.06262887504276       17.72549556517795        8.79058266654087
H           27.40232609959718       19.68261596163944       10.66198381539685
H           26.98365074316786       20.00284875637709        8.96870615374754
H           25.95423876272871       20.61180976936381       10.26925159791412
H           23.72570763466253       20.18199546476373       12.79817583439325
H           22.05047547853925       19.99917334918521       13.37992669352141
H           23.03079520115030       22.07117728524089       14.28536846869345
H           24.37367838460394       21.16353324503454       15.00292747895490
H           21.65835143981091       24.41538689215099       15.41336719397101
H           21.01881256093023       22.77994786470974       15.21055006459451
H           20.31599533619978       23.84102016417559       16.42875025876018
H           21.87784889279883       20.30784115178053       20.31392631374864
H           20.67851926013343       19.90515491374914       21.53752153662031
H           20.38906685697683       18.97784630706605       19.09639956903785
H           18.09479416709954       20.26781891586855       20.65054014671308
H           18.79586157610539       18.62754615049213       20.86483656137552
H           16.88599520498105       19.47292766932269       17.28234848052983
H           16.99011969174958       20.76189782638334       18.50925223108118
H           18.72739069967306       21.11350671552887       16.78608852743659
H           19.32887994701519       19.44701975745028       17.02641026191160
H           21.55085661767597       22.47259029959022       24.74418240786552
H           19.92651402746254       23.12279442531015       25.10757541325423
H           20.27792321903224       21.04916751122033       26.41796357453368
H           20.69392673421349       20.16591822948435       24.94482035068859
H           17.98953540599517       21.44801319052241       25.56469046722795
H           18.33108907724008       19.70883369679123       25.50411785811785
H           14.53806282546764       15.82870465760779       17.99115698602072
H           16.20870060558172       17.50793096254576       17.45123342706440
H           16.89196029823782       18.28978888102478       21.60599424240720
