151
 energy: -221.321861274991 gnorm: 0.004125188410 xtb: 6.7.1 (edcfbbe)
C            9.76057148453175       17.14536011575509       21.56532732234304
N           10.16118612129564       14.98933502076202       23.39831748892372
O           10.33770496531620       15.07589520905674       20.35269252854081
C           10.78017672539200       16.03470467755974       21.31797377050907
N           13.87275269995683       15.00898567289704       20.85274266138745
O           16.27322644009243       19.70625744308385       23.22751461224616
C            9.06771756142353       14.49154201749361       20.57851401756108
N           18.71996516291192       22.00503470368191       22.53728435510978
O           27.30849225554907       17.77460832540037       13.53030475124518
C           11.17074599457408       15.33890823173752       22.61019945368604
N           19.98200090197981       22.46412154286267       22.93127373996016
O           24.92119818204153       21.67058901076462       17.57742509299246
C           10.40130269462674       14.34774293916645       24.52841738154583
N           21.67741946768184       21.42721501187992       19.98716853933982
O           21.16294116567466       23.60921361294305       20.05217237191620
C           11.67850858379366       14.01559022796669       24.94936424870894
N           22.67301202792142       21.60471756170472       17.47658889382721
O           21.33962547679711       18.61471053549165       19.53160512134811
C           12.73873434922347       14.37798471832970       24.13935781591413
N           25.22431671543453       18.21012193493466       14.31772334119855
O           22.21171640870435       22.48368261146434       22.60236073573301
C           12.50553738927448       15.05267935275810       22.94020575159900
N           26.16133013998556       20.04522631718962        8.95765006310171
O           15.93172856341737       21.87241427739362       22.75564250226470
C           13.66066357544593       15.46181717581366       22.13647508180882
N           18.79284761709107       17.38013267857061       19.88915558771937
C           13.21144876791313       13.89656842731003       20.21878704880490
C           13.97846236091451       12.59432266196633       20.44627510300247
C           14.68248578808217       16.30557770107370       22.51996441325505
C           14.86109143695543       17.02040734454916       23.82172535336614
C           14.25836233440316       18.44221698844458       23.88266715313172
C           14.45180510911842       19.00238323491702       25.29449485392340
C           12.76696432478526       18.39455664005187       23.55059523643591
C           14.92175400689390       19.37473465361898       22.85981612857744
C           16.64293668937859       20.96546049014151       23.13340794178264
C           18.07974843448178       21.19823186987555       23.57685273162845
C           21.09537070272785       22.10543778674529       22.26957499644183
C           20.86444109666713       21.10243450495053       21.13814856399773
C           21.73839992643134       22.67387928121883       19.50674288776105
C           22.61122666218056       22.83711083615805       18.25919013960948
C           22.28243351959485       24.07207681534187       17.38300980839983
C           22.96286612642781       25.30624171749515       17.97673555947191
C           20.79263608269171       24.35633992072982       17.19740957401885
C           23.89103581207369       21.11462033250837       17.19806704396657
C           24.02688176169568       19.81576425348939       16.37634987252151
C           25.44233228902382       19.25146183733856       16.51542537014311
C           25.58345736148894       17.96768153095647       15.69655528275760
C           26.14681383326700       18.13969644115441       13.34068831982995
C           25.68701467211595       18.52076807849862       12.03064516668966
C           25.46322564346949       18.87141096394398       10.90049181686050
C           25.05021680753859       19.30534159079282        9.57067480473271
C           26.76719436775581       21.04551163821994        9.81074888436593
C           25.87463661966935       20.59771650176357        7.65065191317120
C           24.76975202759211       18.02847419068037        8.75675205325218
C           23.74755858139915       20.11826665051186        9.73091684614601
C           23.88142639684006       18.70433835195141       14.13727452257347
C           23.68989814898348       20.02118552288011       14.89744085993031
C           21.41092942451738       21.10916145963519       16.95989138451277
C           21.22699767994898       19.71516011280751       21.67242190937932
C           20.72893351505128       18.55554515919600       20.80909202922456
C           19.19941730414647       18.52637859778691       20.67984847297473
C           19.43157557119586       17.42679787217394       18.58866760133841
C           20.94841050099836       17.49051863367481       18.77310646267469
C           20.01646258246159       23.25539744171091       24.14681673116419
C           19.46969142434473       22.40253082398651       25.29197958629604
C           18.06471054267648       21.91131639286840       24.94261186243367
C           15.58749069992470       16.36425268547719       21.41849494357217
C           15.05271466501704       15.53996646878673       20.40584083238369
C           15.72401650229923       15.40147870494536       19.19966598752587
C           16.92275347836773       16.05756211052476       19.03369091038815
C           17.51095950155026       16.84707009626086       20.04713357957865
C           16.81125528363129       17.00529257214799       21.23717490985642
F           23.15649937903069       18.84877821001300       16.90055675298841
H            9.42146737422438       17.54283797977807       20.61191736511479
H            8.91671365126171       16.75978387296658       22.12565432085687
H           10.22520728284876       17.94163969868744       22.13834020172387
H           11.67751787448421       16.45264586130438       20.84958872335153
H            9.03061312805296       13.61664256087568       19.93251446880133
H            8.95157301732525       14.18858063480902       21.62164337119471
H            8.26340846288289       15.17897574590783       20.30567697865679
H            9.52666404289281       14.09505113809503       25.11221276333545
H           11.83533955741014       13.48953744869176       25.87676453447488
H           13.75394240433276       14.13230391580445       24.41529492695904
H           12.19949418430841       13.81250755083142       20.61443885804161
H           13.13601990201881       14.10783158648133       19.14905996022583
H           14.02767505554566       12.36639937311774       21.50855777508025
H           13.47862755394506       11.77652106907217       19.93572702488597
H           14.99261350484232       12.68163975961296       20.06392562215970
H           14.40191355423278       16.44032974194259       24.62359207344377
H           15.93102361236395       17.09602949509814       24.02559232955853
H           13.85928825661406       18.43319664226999       26.00518744361421
H           15.49679784032112       18.94579523965691       25.58956500891117
H           14.13627453932830       20.04271171372106       25.33726321804873
H           12.31055319988033       19.36994731123916       23.69979583787992
H           12.62061143541966       18.09580506005240       22.51619093910539
H           12.26327973861931       17.67542685836088       24.19121761999208
H           14.35777967209788       20.30911960593121       22.78021830199069
H           14.96071432209907       18.89598437263570       21.87820114351029
H           18.60915745613553       20.24401710598548       23.64636767773625
H           18.11817366959124       22.80358899786486       22.32610597886132
H           19.80555734588372       21.16148570655039       20.86809218769649
H           22.14164095493513       20.65094587380065       19.53643805590094
H           23.63049758091401       22.98712143390835       18.64336942797840
H           22.73229892721293       23.87527566442154       16.40242154110765
H           24.04030596209720       25.16575489198945       18.02773695655634
H           22.75580917511828       26.18034882013859       17.36528877055273
H           22.58567468700440       25.48414538753975       18.98067974346605
H           20.26018653231092       23.51549127662864       16.76698663572347
H           20.34268037799617       24.60129880419394       18.15532314619051
H           20.67376558710784       25.20982374193698       16.53466862147892
H           26.15091024389429       20.00633507290372       16.17587887105683
H           25.64647225399763       19.04579897407368       17.56620295682493
H           24.92338093899692       17.19586200350044       16.10476035023535
H           26.61443683002109       17.61150229443933       15.72106463354716
H           27.03683770269679       20.60081304146498       10.76704827845845
H           27.67737623844470       21.39830084637552        9.32756019816781
H           26.11732289309356       21.91611092236964        9.99400835152608
H           26.82099786034258       20.89259961829137        7.19792352437828
H           25.41538106597139       19.84561374116123        7.01669222424793
H           25.22563953428836       21.48546511583601        7.68889203766539
H           24.17627652855031       18.25394398624869        7.87608120040530
H           25.71053752781745       17.57841106273944        8.45399833069602
H           24.22114644312168       17.31663822401324        9.36814554078840
H           23.91371589640467       20.99002079814932       10.35954916059386
H           23.38912710287596       20.44374405853770        8.75825007722896
H           22.98524389710888       19.49624693974974       10.19198499093678
H           23.69089927814057       18.85198733030689       13.07458492527734
H           23.18271979619337       17.95809105364016       14.52978813083500
H           22.66182946760730       20.35332954995825       14.77640802109396
H           24.36019174359369       20.78546063213709       14.50368904550914
H           21.41703239117515       20.03049741007044       16.86578055410214
H           20.62772948241765       21.38024014939581       17.66151791966425
H           21.19036645879388       21.56458481895201       15.99421849894039
H           22.31356419918609       19.66003781962095       21.75477094437546
H           20.80735489152023       19.59955396655550       22.67124592167718
H           21.03825885811466       17.61337459434526       21.29375022794817
H           18.84627287733687       19.45647847950615       20.20915042007903
H           18.78834348622824       18.46662473147266       21.68282518308964
H           19.21353020773209       16.52692978448208       18.02029181465490
H           19.09676767338486       18.30795240360668       18.01773462013551
H           21.44874532770041       17.57755783344730       17.81130678754306
H           21.28873017311824       16.57499564559691       19.27731136438876
H           21.05171593756739       23.55463080026251       24.31626370149481
H           19.40007434728329       24.15040625078568       24.00270992449281
H           19.44234231839893       22.99138548843386       26.20701302955469
H           20.13430459197575       21.55075922831843       25.44617518165815
H           17.38038313545113       22.76109329892908       24.88136734419924
H           17.69765634410889       21.22704912776813       25.70720758529287
H           15.32616171857627       14.80102406653603       18.39562690733471
H           17.41128919141734       15.94314999681125       18.08113091971691
H           17.18611330378824       17.60297386917943       22.05009330870050
