151
 energy: -221.320301915860 gnorm: 0.004427998844 xtb: 6.7.1 (edcfbbe)
C           11.05979877890589       14.78206212627164       23.23909973985030
N           12.75803506395573       12.66991389651371       22.43736902008142
O           10.97821552808071       14.35025601132069       20.81445543633844
C           11.79139007568557       14.80310968809193       21.89742137858916
N           14.00991189249648       16.03732363575392       19.71849399210491
O           17.00176997881538       18.98552481518095       23.83424386386170
C            9.80956633087680       15.10914912600953       20.58702056017029
N           18.91211862594954       21.86773032981258       23.45923742890328
O           26.47729333848792       18.07181996128388       14.87659251662405
C           12.98694088894580       13.87032690188819       21.92333135473381
N           20.22034785902067       22.31558226673803       23.66551833353676
O           24.03510575753921       23.05272891561737       18.19444423415861
C           13.73662726913918       11.78480244688532       22.48467156379180
N           21.17457435614025       23.07871835646977       20.26963962164216
O           19.46533695471240       24.04445008545876       19.15967895885135
C           15.01513607888801       12.04249990107371       22.01549090898372
N           21.96718167079460       23.34462588204705       17.36672081865548
O           19.66354273104265       20.78661449694690       18.58526824423178
C           15.26560413862818       13.29370673657669       21.48502934620875
N           24.55506071952645       19.23088654400133       15.19282817085278
O           22.18046618533820       22.94145466160471       22.74474372407164
C           14.24432105673302       14.24430505011247       21.42958018675236
N           25.58585568059936       15.76038363232315       10.79751356463354
O           16.29858078579051       21.09970822691296       24.06817464224712
C           14.56518808728641       15.56857242431247       20.88679076027999
N           16.84974435917793       20.75682977272634       19.11089998274433
C           13.27364560195057       15.24095241852597       18.76791678768258
C           14.21505543932386       14.36083230089497       17.94600296870814
C           15.47557679210755       16.47690318700968       21.38337159670447
C           16.26996775617202       16.34125560715579       22.64289322850681
C           15.62981448735819       16.98562000141247       23.89406923945861
C           16.42235503313734       16.55422737518326       25.13104098375693
C           14.17526645789193       16.54644748703893       24.04607875538788
C           15.64746166260185       18.51268477316957       23.77665225783981
C           17.18542824319993       20.27683171260717       24.00256157614626
C           18.65631750138807       20.61622451434368       24.16383868665260
C           21.02012176153821       22.56610922478287       22.61921720863917
C           20.37243940733292       22.37984838228128       21.24580100378445
C           20.66603789843005       23.85175934518961       19.30696715405091
C           21.72541097690128       24.40887792460565       18.34287935640378
C           21.31134212818263       25.75004184993916       17.72368840145547
C           22.33446150820243       26.19712528699057       16.68321628291362
C           21.20368203584776       26.78719354788014       18.84101818250066
C           23.11957571800622       22.67220403256547       17.46232593413383
C           23.29586365945501       21.32393943976721       16.72148428543862
C           24.60765385682381       20.68301211757313       17.18137232230891
C           24.72606353181006       19.26960109343101       16.62938251651510
C           25.40525906395594       18.50493984975619       14.44626049952327
C           24.97838186854510       18.13704482932542       13.12136294223648
C           24.77354833522137       17.51823114078327       12.10687371414368
C           24.48842131087758       16.73317087313534       10.90666767817198
C           26.89589971027851       16.36219827987173       10.65540690692140
C           25.40262817967928       14.70297071686174        9.82653185137152
C           23.15714369443519       16.00854548032462       11.16680049521137
C           24.33818510309334       17.66824095994087        9.69071992100331
C           23.35410021525655       19.86102120917507       14.69710955002780
C           23.26909369677935       21.31403096382735       15.19134372276209
C           20.86104858154067       23.02569005881646       16.49083084994070
C           20.25869368401071       20.88074732085957       20.91431030835885
C           19.18330154892008       20.49980746820864       19.89190590604063
C           17.81726659878217       21.17940499033821       20.10580371556484
C           17.38549810251150       21.06175926991157       17.79358748309525
C           18.73270453136575       20.35566206690630       17.61222387199042
C           20.65415893001479       22.48041368096180       25.04399879537309
C           20.43801529299495       21.17909405886315       25.81614535059935
C           18.98838358940755       20.72126405486315       25.66394509475711
C           15.51368124266785       17.56051995137315       20.45381573572291
C           14.59271034546439       17.24255255394966       19.42948459898414
C           14.38825282140889       18.11497870699257       18.36757016105266
C           15.14024634231010       19.26209294295104       18.31445969468182
C           16.13289582492342       19.56593785970153       19.27329003727762
C           16.29312106171525       18.71787524885166       20.35999886524495
F           22.24436862339064       20.50671710147830       17.18531223861086
H           10.28039419357792       15.53841727528683       23.26239897012185
H           10.62478812784511       13.79924917901049       23.39182127109347
H           11.76494561375871       14.98459494397395       24.03776352798956
H           12.12897340746401       15.82944656649598       21.67454195895311
H           10.03620051941962       16.18048486831026       20.56600948656757
H            9.43815431724241       14.79435243212579       19.61376843477147
H            9.04781167778521       14.91105904440081       21.34528034826530
H           13.47848034481210       10.82934218177201       22.91999861896462
H           15.78488446982101       11.28937884917940       22.06177098162648
H           16.24089818803376       13.54754383354697       21.09596010829530
H           12.54842736001946       14.62029478821483       19.29780950108461
H           12.73174386980526       15.92243119323585       18.10978397766816
H           14.68036076674557       13.61030523004692       18.58100026796810
H           13.66225076612849       13.85607595169310       17.15922893631396
H           14.99689949216657       14.96854267862515       17.49480698907501
H           16.41168970910677       15.28071360922910       22.85811560328230
H           17.25219717790245       16.79407702865896       22.49420645366964
H           16.31229611657703       15.48521283833404       25.28562751244010
H           17.47653071433935       16.78235924544386       25.00736689279042
H           16.05629849285439       17.06955325767577       26.01462607496250
H           13.76563426623472       16.90597370428774       24.98664126974984
H           13.57065755304120       16.93958606210236       23.23354115242366
H           14.11436299644461       15.46157696103899       24.02970525628524
H           15.08831441845257       18.97688887691541       24.59527966889088
H           15.20251104663143       18.83752646628379       22.83163688418464
H           19.25875949201967       19.82312612840501       23.71073184209215
H           18.23951955609791       22.56532942419810       23.78416612416438
H           19.38542438420591       22.84460240017067       21.26504292532662
H           22.17659468736158       23.01682854654014       20.40912910051634
H           22.66655019562027       24.54925469604098       18.88350750650956
H           20.32753373455945       25.64127119726189       17.25981652652580
H           22.33968217156341       25.53593651422552       15.82169882949805
H           22.10331481856861       27.20300635177098       16.34464604298286
H           23.33197539558021       26.19837297118623       17.11768048162492
H           20.47734008624391       26.47165573883688       19.58644910549921
H           22.16612049573165       26.92201969771468       19.33008590933566
H           20.88401741693838       27.74286687916550       18.43545603370205
H           25.43122019661313       21.31071330731089       16.84415310961947
H           24.63541331133836       20.64977044690557       18.27016007113802
H           23.95119026976134       18.64160289781411       17.08664160644410
H           25.70625447277816       18.84902859755634       16.85933310174174
H           26.99950714126169       17.18972106930176       11.35447119478687
H           27.64747348812409       15.61255490860027       10.90381072213372
H           27.09632554374383       16.72429555282727        9.63543460156503
H           26.23618522184058       14.00949248452330        9.93553856971255
H           24.48482870325701       14.15875021592881       10.02719979019095
H           25.39377230280125       15.06047248178924        8.78541951859179
H           22.42165740840721       16.72086271765204       11.53090321971222
H           22.77908440629525       15.55895564647191       10.25332424999756
H           23.30049361552717       15.23891841771549       11.92030891871575
H           25.22534650186638       18.28247153867304        9.56292599926750
H           24.18255532700111       17.07647270536505        8.79239589475416
H           23.48067952752387       18.31914557309152        9.83241371604846
H           23.36518434940823       19.83208167470175       13.60688857708124
H           22.47786615522799       19.31139025741047       15.06075969213144
H           22.35896324731299       21.76005163730891       14.79958473049405
H           24.12490220502169       21.88582243874897       14.83456507432752
H           19.93807083295747       23.33731566656580       16.97472513102355
H           20.95887441540144       23.55655453179347       15.54296726821806
H           20.79727702367147       21.95731078578788       16.32255030658014
H           21.21895196793755       20.54538374762889       20.51707298031301
H           20.05263312517284       20.33276583371783       21.82899192129956
H           19.03910417393213       19.40540776664663       19.95654281277782
H           17.94055668913781       22.25727193758512       19.96162192409670
H           17.44275442124368       20.99938827914463       21.11279254902208
H           16.70236290214948       20.75363417423482       17.00755482257314
H           17.53800373918101       22.14381615467579       17.73824568965897
H           19.17245305594483       20.57927279844956       16.64162152985267
H           18.58646592860458       19.26680046170336       17.70137277173414
H           21.70633205699115       22.76397691060924       25.02012856334176
H           20.07150986768745       23.28964436421061       25.49707461480656
H           20.67120962883634       21.34274281477084       26.86715159822149
H           21.10906242750638       20.41220089346475       25.42809177063329
H           18.31221751459238       21.44742668279358       26.12200218162311
H           18.83671851220502       19.75519900335029       26.14356919846089
H           13.65713938480417       17.91120902685863       17.60054615245945
H           14.95405326268920       19.95967822312810       17.51409219881034
H           17.02469268367848       18.92161160972764       21.12630501005302
