151
 energy: -221.319512391848 gnorm: 0.009459078279 xtb: 6.7.1 (edcfbbe)
C            9.83746176469809       16.37298795318212       23.94562046013146
N           10.96521858637465       13.85617015688653       24.45847644114887
O            9.88541877914366       14.89816208562713       21.96229861324339
C           10.67043736776779       15.64276691687313       22.89038795378369
N           13.43510504950571       15.26137406718375       20.94274871564397
O           16.47377638238081       19.20228828985357       23.85997328926931
C            8.92113444194728       15.64536268759193       21.24337931059993
N           18.84986966102845       21.55084422606376       22.77381125428370
O           27.00794215643241       17.95028806462489       14.28735282077743
C           11.57076639777994       14.62127732370577       23.56070642686363
N           20.15797866894817       21.97071726643585       23.03673989076912
O           23.84585533576449       21.69139962633404       17.96484529690361
C           11.65113976558909       12.92412176122953       25.09324214490720
N           21.37970587669707       22.13098664582394       19.66714916898153
O           19.71943260955941       23.43848394690067       18.86024258275212
C           12.99922617605148       12.69458866566951       24.86944021281734
N           22.03452393742516       22.38946742921532       16.83521798955308
O           19.80920688809508       20.12993459737315       18.46819444327807
C           13.64040493260320       13.48877218671345       23.93741561409432
N           24.87162728826258       18.71495755304780       14.37044832302973
O           22.20738565778202       22.42818102434079       22.22770448077840
C           12.93143604536990       14.47968698931034       23.25534983051815
N           27.06428694897085       18.31437196030488        9.17697304277092
O           16.14636523547674       21.31995337564181       23.20214968684970
C           13.67032681228113       15.31057266149916       22.29678092379400
N           17.60937860708843       18.46167845320020       19.18416164711551
C           12.56237389969698       14.33449815009510       20.26712838545674
C           13.25851364857628       12.99577730549814       20.01655594418104
C           14.73267404335482       16.14819268412656       22.56648924181782
C           15.32835267366465       16.44256376157436       23.90692154451997
C           14.75309528907518       17.67764839928111       24.63175849054688
C           15.38611122932294       17.77728963713710       26.02243862426433
C           13.23598778542089       17.56552860824321       24.77000987712517
C           15.06135282738524       18.94920456274687       23.83523547639322
C           16.87636205424468       20.41331163679433       23.54844567479311
C           18.37041398350333       20.58310798107579       23.75050092293550
C           21.07072849470157       21.99938558878815       22.05486717529141
C           20.60824365306912       21.47132481432941       20.69407785867554
C           20.88010835755865       23.04875341757935       18.83500548154990
C           21.90882758842555       23.49972402030962       17.78383959941369
C           21.56739751514420       24.84041524534106       17.12363622545700
C           22.60199739255009       25.19393538929799       16.05588960551347
C           21.54596156558324       25.92418959447755       18.20125078889435
C           23.03312411868744       21.52862681015688       17.05025584950386
C           23.23670381180682       20.32257575035390       16.10984899487338
C           24.38322281163391       19.46138404222225       16.64578052846248
C           24.65305381523929       18.27281260572183       15.72758007259500
C           26.04760851037510       18.50732516056254       13.75183270140553
C           26.09842552185978       18.92559528559181       12.37481962759780
C           26.23085325123737       19.15106827182197       11.19987833964205
C           26.30123082641693       19.42438501043748        9.76681115827416
C           28.43274729651750       18.23662036065565        9.65415060231328
C           27.01402875114919       18.21962862563608        7.73201974803109
C           24.85449122747168       19.43228453878536        9.24784999531510
C           26.92612871569512       20.81863049601625        9.55385742878234
C           23.77671288374152       19.47304570631912       13.81602368221710
C           23.52548689140016       20.72650841390880       14.66268780286892
C           20.91095956549470       22.21954689350722       15.93747928548020
C           20.81777349781414       19.95187206908556       20.63300750874240
C           19.93391522422981       19.26516546229567       19.57593493134464
C           18.57314788549355       18.88876085188224       20.18632161575141
C           18.15439917408873       18.39082689915757       17.84870099005701
C           18.85996470761143       19.69829082193824       17.49683445377418
C           20.44736757709514       22.47105262037278       24.37149150250226
C           20.05630948654860       21.41376255476261       25.40046865664772
C           18.58655752868173       21.04509982679062       25.20729385939764
C           15.19827119585527       16.63065078130179       21.30603967628972
C           14.37854309828318       16.03495667676060       20.32120475630779
C           14.61921603729289       16.27219992312695       18.97457603709917
C           15.68836490327584       17.06324625547526       18.62453850216784
C           16.54291328254448       17.65801447401693       19.58094422053162
C           16.26106237682584       17.45532960023185       20.92840449734477
F           22.07154238951449       19.53538286540773       16.13551403350444
H            9.18438278387343       15.65996041085720       24.43994338602196
H           10.50633761547408       16.80620968350419       24.68410991284933
H            9.24724439226690       17.16795006184891       23.49791696506227
H           11.28124207613898       16.37255779813006       22.33023339161274
H            8.56456185046934       14.98425325482586       20.45492259181725
H            8.08235118064430       15.93094851190639       21.88264255693564
H            9.37252497099152       16.54039168018068       20.79958457327562
H           11.08690899773306       12.34427031040356       25.81046142450296
H           13.52600364863015       11.92014383326271       25.40290593841065
H           14.68788343036054       13.34477594186626       23.71631506400621
H           11.66484066288770       14.17731214230940       20.86926666104697
H           12.26557244061668       14.78634679935715       19.31778088923395
H           12.61132914208977       12.33997692422254       19.43352365182295
H           14.18953674513745       13.15316780502402       19.47020795207123
H           13.48423290447527       12.51085964898520       20.96547683274784
H           15.18122048700385       15.58079296843300       24.56070506907966
H           16.40201232232135       16.59564668061630       23.77978008702785
H           16.47107008672198       17.77922189946789       25.94731209915756
H           15.07112441551530       18.69413221802583       26.51772376000066
H           15.07990473479888       16.93155430421071       26.63334788654088
H           12.97619687369768       16.62892899029335       25.25748325395840
H           12.84732203461632       18.38780530075739       25.36509922640865
H           12.76294032575346       17.59047793170663       23.79293576494299
H           14.54740501877138       19.81721326424999       24.26320424654558
H           14.74627621377492       18.84370578654053       22.79263722448031
H           18.88406870500308       19.63265890172841       23.58291016284223
H           18.21034819257705       22.34934236650483       22.76183203937179
H           19.56053118910151       21.73162220671593       20.52793758183934
H           22.36573499934465       21.90735882529059       19.62292004296519
H           22.88254898327329       23.59545802288094       18.27784971421688
H           20.56992991036430       24.78042291160521       16.68098553776483
H           22.65376505087844       24.43915854045244       15.27631011478458
H           22.34773826416567       26.14684109852157       15.59801755136709
H           23.58759665001717       25.28081653812626       16.50934543509695
H           20.76135448239510       25.72308734856830       18.92659251109706
H           22.49940817015668       25.96006330819551       18.72516562145157
H           21.36073646991350       26.89549317304959       17.75176909827914
H           25.26856550780654       20.09162005504566       16.72822307352253
H           24.12997610772307       19.10906968095314       17.64587704056405
H           23.79222268388391       17.59550446266114       15.74083836806995
H           25.54251921453098       17.73263770300714       16.05684406097138
H           28.45363896538908       18.37655478441876       10.73434279501889
H           28.81877223354962       17.24174278593265        9.43089551406070
H           29.09642553419209       18.97826919452162        9.18245815581663
H           27.57482682561395       17.33279761017434        7.44051607444146
H           25.98682066272933       18.09118930380123        7.40208283507984
H           27.45729631086557       19.08814827795432        7.22045256769176
H           24.25509148991046       20.09123430194104        9.87131421267984
H           24.81440822455866       19.79726109252356        8.22584145900207
H           24.43695698491117       18.42991724231432        9.29504780956997
H           27.03860695091841       21.00952765859464        8.48849502299714
H           26.27875266818020       21.58172358450270        9.97798605760759
H           27.89944211717261       20.88924168444867       10.03347824081188
H           24.01504917539880       19.75113573126636       12.79009054022902
H           22.87881840607761       18.84642878991859       13.82150768612431
H           22.69549223221253       21.28492129200381       14.23714634159273
H           24.41272285015431       21.36014299549438       14.66464642399569
H           20.89442666603178       21.22968288221961       15.50429731636572
H           19.99280124744601       22.35416972607386       16.50953596591873
H           20.94662756763038       22.96687116498177       15.14567735597718
H           21.86983694049482       19.77138096341148       20.41264829773534
H           20.59266374626963       19.51542694298813       21.60438177916849
H           20.44170436116245       18.33965205421828       19.25447494014023
H           18.17341975254583       19.75679768146632       20.72810555047127
H           18.76356520366957       18.07985936657444       20.90599280370947
H           18.85366650440001       17.54464297333073       17.74232346132928
H           17.35736464146374       18.26438953794596       17.11929378810198
H           18.11964581676242       20.50261472362155       17.39594512106378
H           19.39045316162247       19.57317426561769       16.54458105819933
H           21.51292074244196       22.69693954627682       24.40480002229051
H           19.87711701775507       23.39244726437397       24.53684955832040
H           20.21915942546169       21.80317909069092       26.40392641854999
H           20.67546829783197       20.52792596381173       25.26394835422401
H           17.95654218767500       21.91760936930367       25.39704464234153
H           18.29423159839292       20.24768467890446       25.88805782976204
H           13.99821194373159       15.83962335997924       18.20502639129889
H           15.85662007851746       17.21973935594291       17.57261193457910
H           16.85506379286789       17.91742909863262       21.69834776968268
