151
 energy: -221.309320318154 gnorm: 0.004164056054 xtb: 6.7.1 (edcfbbe)
C            9.80873291159214       17.24867676660780       22.63051624466695
N           10.41986491286960       15.07561780557203       24.36971474492080
O            9.85841081337967       15.04203060290804       21.54637102606730
C           10.64530344245682       16.04766394158860       22.18842744448934
N           13.48661935871569       14.95864706876361       21.11482003613916
O           16.73297894417518       19.36307364593914       23.13739540857940
C            9.44115126428452       15.34918968614114       20.23452811013784
N           19.40579412482598       21.63088885653814       23.00003699084811
O           26.88106439131145       18.02046095015977       14.72569949176248
C           11.26516620853917       15.35602686748371       23.38903432780048
N           20.77924935476581       21.49880445130023       22.79367454339879
O           23.84400846666206       22.36472888616442       17.91405492145344
C           10.85371749098448       14.43887140959242       25.44211353575879
N           20.62996218623950       21.82387638788802       19.35774269538054
O           21.53817670002348       23.50938058568338       20.53838704147794
C           12.16849154405596       14.02818180607221       25.59742680963705
N           21.76848547842604       22.64235610786985       17.09323188237352
O           19.53929583297327       19.68560832293183       17.93283898556619
C           13.06187562082286       14.32600057797432       24.58505685011044
N           24.82070857121744       18.96836107441893       14.75154734882102
O           22.59901700304154       21.01856563583514       21.55807565321868
C           12.62481599018538       15.01014190438630       23.45101275488170
N           26.60607785178082       18.20997638292111        9.45879555955703
O           16.73547056503824       21.49884957760471       23.82573449420397
C           13.59434699791744       15.38869049617135       22.41952758806042
N           17.70838315463820       17.72324245284463       18.84015439608628
C           12.69488463700903       13.84209391928629       20.66117389863815
C           13.48265095001510       12.53520251614102       20.74135780162216
C           14.66960091339941       16.24188759086124       22.55538369043445
C           15.18884065245671       16.86892855127693       23.81179020144091
C           14.72019422218403       18.30988386092922       24.11515481360197
C           15.18654305949511       18.68903907801734       25.52337784260014
C           13.19707940496530       18.40183684062411       24.03118689078049
C           15.29602415092773       19.31035451272629       23.10268791289078
C           17.32000637041365       20.48930387864960       23.50941804331376
C           18.83261219874014       20.36570525264590       23.45056708765515
C           21.38215231769908       21.17015324198210       21.63823399112633
C           20.47737681227646       20.86512518415116       20.43341666093569
C           21.25833802815284       23.00021345278962       19.46011028965679
C           21.58054710370953       23.67940352890626       18.11503094244527
C           20.58589518622922       24.80187304408857       17.76465760566244
C           21.01166455879495       25.52302825874190       16.48622671696646
C           20.52304177240168       25.81672307640813       18.90659147198924
C           22.93536627798695       21.97931435103902       17.17992828979172
C           23.17533650826379       20.69700944198317       16.35213392458881
C           24.35582225314637       19.92338288887117       16.94405142213370
C           24.59313742662139       18.64646503642738       16.14144829617188
C           25.97423004452298       18.63238218189160       14.15394822416480
C           26.11378132336578       18.99907856453368       12.76808435490189
C           26.43339663684913       19.16657797205745       11.61882319703051
C           26.79217782214094       19.44702375215531       10.23139395936493
C           27.27824736157318       17.04957085810974       10.00977246753345
C           26.89775395153579       18.32583003508278        8.04372287521631
C           25.83346356569864       20.53456785208026        9.71801531757500
C           28.23915617604786       19.98354065098687       10.24288452412076
C           23.74096138161831       19.68642593294832       14.11843970092175
C           23.43466123543573       20.98672148108431       14.87198653879844
C           20.67884354209120       22.29615258150511       16.19462074556544
C           20.89838047884545       19.47906490440702       19.91738966148223
C           19.87507090327621       18.81308515145711       18.99692764346504
C           18.61523027756239       18.37997516622074       19.75720655383335
C           17.37014924400378       18.61879189105484       17.74406514391830
C           18.65153695026331       19.04640617412772       17.03362392318874
C           21.45791642368545       21.38564639133095       24.07258371937407
C           20.95443138101267       20.11351666058219       24.76330683783428
C           19.42555042018440       20.11268108970807       24.84761542124247
C           15.25186544662935       16.35459313515778       21.25833608460170
C           14.49876282052156       15.52943476101333       20.39312979228659
C           14.82860801578309       15.42102931126395       19.04625350726249
C           15.88458384072411       16.16410527680804       18.57526712800728
C           16.63287479198100       17.01383882893180       19.41353507269848
C           16.32801472560330       17.09026527036479       20.76059505101449
F           22.06043464225363       19.85301000917725       16.46157346965665
H            9.37546370343221       17.75153519244336       21.77002733786060
H            9.01585680510801       16.90346020285073       23.28722080503406
H           10.43835063100782       17.95280018499260       23.16678921239577
H           11.43423831594715       16.38009162693248       21.49625122941370
H            8.84365547413000       16.26275509744160       20.19681779903880
H           10.30367956418390       15.45647669022683       19.56525048717541
H            8.83003334927116       14.50588848180151       19.91792440200019
H           10.10770204394436       14.25068769094942       26.20169714986846
H           12.48079643029423       13.49451013684690       26.48057900444698
H           14.09575466818308       14.02053542045192       24.65410680331210
H           11.79436836048228       13.77054221337650       21.27420406563081
H           12.39708298388171       14.03080650049983       19.62654869457635
H           13.78033636418845       12.33838775029848       21.76859030791061
H           12.86647500268030       11.71175837414202       20.39251801417010
H           14.37770032672811       12.59321633761538       20.12610078810231
H           14.88940964238058       16.25230859269677       24.66031899478640
H           16.28014365610349       16.87320684039747       23.76372455117399
H           14.69044077454068       18.06795395685054       26.26421672551021
H           16.26144119853826       18.55160986936308       25.62292469924632
H           14.95551611150727       19.73118604388951       25.73484550238405
H           12.85957443324262       19.40053486371723       24.29701674124964
H           12.86174768879476       18.17542546640270       23.02226369175023
H           12.74143873479565       17.68851968932334       24.71335685883329
H           14.91539097348226       20.31456365434157       23.31017847967600
H           15.02445782772152       19.01421427160877       22.08743532851457
H           19.08734206783465       19.52117458702672       22.78760838507646
H           18.93041763733347       22.06576917043437       22.22021123360628
H           19.42472090489093       20.84782282000509       20.73268266666083
H           20.39863525378973       21.42643624336114       18.45557194157029
H           22.56239654369275       24.14542211303066       18.26820566010379
H           19.58303899493902       24.38440895914783       17.64133972948182
H           20.30337053474145       26.31928484321985       16.27321872268758
H           21.99601053934798       25.96556551237401       16.61960217230411
H           21.04747997484733       24.85706819281993       15.63194230746437
H           20.20464582351047       25.35428707850335       19.83670835252567
H           21.50258840014175       26.25770335097138       19.07791889495381
H           19.82257134935479       26.60874684407483       18.65497041245573
H           25.23667842438981       20.56381644110226       16.92565183665778
H           24.14501109482812       19.68003574626605       17.98654864392273
H           23.71671304817517       17.99414733279163       16.21809304502405
H           25.46991607625598       18.11557064554213       16.51514632628098
H           26.84077118870771       16.15690182095840        9.56168761965484
H           28.35996167884299       17.04016405518866        9.80598403856727
H           27.12814713878102       17.00571978420863       11.08643369092560
H           26.36991805839429       19.17494153013801        7.61579595929317
H           27.97537806181776       18.42066542568847        7.83170719394801
H           26.53732943151972       17.41775164771306        7.55771933856743
H           25.73304486254741       21.31307569545789       10.46991153927698
H           26.21499402524622       20.98803374534965        8.80788643449005
H           24.85750678823126       20.09890481212949        9.52467780912018
H           28.91782917323991       19.24217929763404       10.65899139851226
H           28.55519966271670       20.23279202576944        9.23340386878798
H           28.29228676086167       20.87797225401615       10.85768030479471
H           24.01549602985952       19.90510365486269       13.08598586701383
H           22.84851000584827       19.05098527626437       14.12750914385881
H           22.56702717690354       21.45830900318330       14.41593572693069
H           24.28277513421362       21.66902631166060       14.81459202126528
H           20.54994222998830       21.22217131088140       16.11439008699964
H           19.75462083552774       22.71550301242935       16.57599976685301
H           20.86026538697925       22.70941546226772       15.20204450522563
H           21.84633540840976       19.60350166473104       19.39136697238694
H           21.08097984696562       18.81687302669885       20.76450636407687
H           20.33552232799591       17.90673022889471       18.57075043744408
H           18.14481272948990       19.26396089116437       20.22180988109307
H           18.90424040058696       17.67381543563780       20.53654920592012
H           16.71275726771034       18.11210078130212       17.04099060205434
H           16.85645328305015       19.51923546433455       18.12404255395827
H           18.43356080981619       19.77353806068075       16.25148230872745
H           19.14662597425432       18.16816039513764       16.59913699627661
H           22.52984586830395       21.34515119353273       23.88338803231630
H           21.21284446772991       22.26996076058573       24.66102546704333
H           21.37905238288275       20.05215120980614       25.76338920119812
H           21.29293178952234       19.24669845839536       24.19113532273080
H           19.08911480308054       20.91547675701802       25.50375073681327
H           19.07067081543101       19.15833303515426       25.23614664561180
H           14.27840143851723       14.77421053231152       18.38049264941774
H           16.16546762456909       16.08176014347534       17.53713319003959
H           16.89255400979748       17.71048916321910       21.43542251908134
