151
 energy: -221.327985790826 gnorm: 0.009391721850 xtb: 6.7.1 (edcfbbe)
C           10.92024461567263       15.21957464563348       24.32402097884574
N           12.20872050615253       12.93983310867554       23.24753322622578
O           10.41600561746521       14.87709795556284       21.94413580396925
C           11.43944962482405       15.19332773765231       22.88711184775177
N           13.40591136052719       16.16314507213000       20.36459788835954
O           17.11144244173362       18.96601158905078       24.00497137596403
C            9.47895424133729       15.90925407171319       21.72167714028648
N           18.97194084431413       21.78893159781171       23.41523693332597
O           25.86857875785860       17.08041027148096       14.86232860799724
C           12.50079036926111       14.12164646271402       22.72234443858895
N           20.29426347231282       22.24314760890599       23.47810589803872
O           23.28064611862712       21.71311544823249       18.00966728762848
C           13.06627259402935       11.94376893938523       23.12489038278943
N           21.02391847739202       22.64709123253233       19.95526425849918
O           19.27045677510258       23.50992287034004       18.82045680851967
C           14.28661122096371       12.06963593686168       22.47868129142486
N           21.50602223142732       22.50751805085091       16.88400753877102
O           19.38845906949324       20.35427665296199       18.57180380149519
C           14.60671994247802       13.30146711857929       21.93959423194438
N           24.01582924486919       18.37592247146776       14.70233841367416
O           22.19170195661012       22.74807432553046       22.37270036297788
C           13.70537424465867       14.36170715014108       22.04628526372244
N           27.60834543740094       17.42267136216531       10.24877239154980
O           16.41710764139952       21.05222011793427       24.43566031825821
C           14.07591965643728       15.65029902003517       21.45028169425444
N           16.59927943908334       20.53265294479893       19.21914890927954
C           12.41593354886503       15.47861279597044       19.57047823577825
C           13.06055868649399       14.70554848341941       18.42170057892926
C           15.13669617748170       16.46500360309824       21.78738573459472
C           16.11957233410663       16.26119389737217       22.89688256785387
C           15.76141348127609       16.94555423119711       24.23560275981019
C           16.78407078846605       16.52253951533106       25.29355014899697
C           14.36127224266031       16.52888023735133       24.68581378257339
C           15.76457075757947       18.47267291797040       24.09469953961520
C           17.30024150568248       20.24785436243178       24.22986787602654
C           18.77675858736910       20.60718527191924       24.25328826821760
C           21.02226508756722       22.38232110328267       22.35829312794977
C           20.27496992959950       22.08875258563108       21.05585280889983
C           20.46901389930874       23.27430557068084       18.91490889272730
C           21.47574200601289       23.64178444269535       17.81399675359600
C           21.15554890920014       24.98549295064804       17.14705711460559
C           22.20393766758600       25.31450746360127       16.08688237395243
C           21.13298267744517       26.07808277229379       18.21532265722450
C           22.43272894682865       21.57194286985878       17.12015373673547
C           22.53409818449170       20.31361604092221       16.23230228502589
C           23.46889047585797       19.30558233916639       16.90035321774722
C           23.58304308738693       18.04971246648254       16.04315384774165
C           25.12328436123974       17.80636885960928       14.19763970472129
C           25.39971901343904       18.01348871811748       12.79856379084565
C           25.80022801249364       17.91378143214352       11.66598502672277
C           26.19561342516931       17.81403712999797       10.26095555714051
C           28.48824334685762       18.40648279677983       10.84678224676399
C           28.13620972211974       16.96336212224868        8.98199262355456
C           25.32063866191626       16.70429066052732        9.65150702675410
C           25.89319785112541       19.15006995592371        9.55091967141905
C           23.17696931888472       19.32211509101308       14.00833416993886
C           23.03876225395589       20.62108310627256       14.81810432919099
C           20.39501239216951       22.42976440713256       15.95891894157878
C           20.07289293811070       20.57458145692899       20.87717474063526
C           18.95157889747309       20.17820076283080       19.91434086629801
C           17.63631031052987       20.94900619037308       20.13877830702331
C           17.08344959992717       20.70235304695244       17.86002627480122
C           18.38822068219046       19.91826999404551       17.67069347531188
C           20.82036709062950       22.54303159930814       24.80045136301302
C           20.67650296343161       21.31767662533061       25.70148231262278
C           19.21950397445856       20.85639989815790       25.70634345219766
C           15.14281979762959       17.52904041732014       20.83643032802184
C           14.05732298530125       17.29714240951913       19.96047161015417
C           13.80660836132465       18.15376946204336       18.89572455049342
C           14.66813555667686       19.20398602138271       18.69126842344458
C           15.79522388656295       19.42659450374371       19.51188121176383
C           16.00964365520815       18.59911167674604       20.60430281042148
F           21.27671765827048       19.70036089122794       16.13063841445798
H           10.20746189158634       16.02846084106835       24.46288790869447
H           10.43963536526166       14.27042692275965       24.54125666066870
H           11.75111769835494       15.36445930136962       25.00676384744355
H           11.86898701163726       16.17437651206665       22.62370735660783
H            8.81665254903377       15.54034619895039       20.93936263734138
H            8.89372718999073       16.12749647037927       22.61974622792365
H            9.98224858989451       16.82494513535008       21.38314800841953
H           12.75701525253853       11.00717197350875       23.56950358888047
H           14.95773213987053       11.23195221958836       22.39459340207682
H           15.54118195278880       13.45397267135112       21.41896475628222
H           11.85459064463674       14.79494111237697       20.21041667367381
H           11.72310790711286       16.22604664279011       19.17447497346264
H           13.74900575612378       13.95885735271259       18.81037216290774
H           12.29407072753570       14.20319170590343       17.83992191010005
H           13.61273437060835       15.38033046495846       17.77240746279077
H           16.21268221957311       15.19136445524785       23.09470608523815
H           17.09309457547700       16.63519512719946       22.57370357754361
H           16.70315375656337       15.45943945360743       25.48347154038923
H           17.79361633995341       16.73766970091426       24.95784599303890
H           16.61230168655829       17.05383638801064       26.22366893638821
H           14.16473538467818       16.88196515306021       25.69476003255870
H           13.61047426053307       16.94585351193911       24.02021075727553
H           14.27308431028383       15.44594486937795       24.67127075532144
H           15.29547074689788       18.93948140071230       24.96867763410917
H           15.21591216785355       18.78646393755976       23.20259776083870
H           19.35226721144707       19.77774443364966       23.83086287464653
H           18.33006031636753       22.52010935611654       23.72729447399740
H           19.31224579593759       22.60092595090059       21.10150800116384
H           22.01976330760125       22.46756212861908       19.96638771261917
H           22.47411018814965       23.70161115215924       18.25847663762483
H           20.16069183133959       24.93466405497975       16.69783900081377
H           22.29903577312924       24.51659722786637       15.35719358231265
H           21.93550961171038       26.23006747893026       15.56850318528791
H           23.17400259400729       25.45647013790271       16.55849002476533
H           20.34820990220836       25.88674937679191       18.94316161166328
H           22.08654271656432       26.12411202155718       18.73901331130520
H           20.94419543064143       27.04337111492858       17.75295799415150
H           24.44294185415282       19.77398208376291       17.03551616975012
H           23.07747584751152       19.04873790142162       17.88511679165541
H           22.60518191436103       17.55689105498136       15.98742246161435
H           24.31091770365378       17.35886389082304       16.47236301089308
H           28.04503127021360       18.78403757004839       11.76854604084430
H           29.43230216717053       17.92082566698609       11.09669466640543
H           28.70259538654327       19.25386392084970       10.17562880582023
H           29.15714931736680       16.62155546516216        9.15412844513737
H           27.55971071486542       16.11897977567425        8.61381189112580
H           28.16826609208034       17.74689386117701        8.20751988765953
H           24.28073788449987       16.88720393685598        9.90388962936615
H           25.41791990643606       16.69096953188696        8.57189710528996
H           25.60756363280079       15.74135225685108       10.05874448404636
H           26.35327261440902       19.98336006867958       10.07555212048770
H           26.27605302275581       19.11979452007381        8.53232795147068
H           24.82100355536216       19.31287577689279        9.51855840381200
H           23.61205141525855       19.53280994584596       13.03031416799232
H           22.18104113072113       18.88334082208021       13.87130303939628
H           22.34820350935916       21.28762757141915       14.30302879064025
H           24.00574574855759       21.11526594125736       14.90954224976826
H           19.47521650998461       22.62529903269393       16.51136174851920
H           20.50496578543288       23.17876551749692       15.17568132380734
H           20.31903428911751       21.45069671338547       15.50742798706816
H           21.00664608141313       20.14719792800867       20.50494352985451
H           19.84563597517170       20.12990816773006       21.84092666841990
H           18.75733304289027       19.09894054718039       20.05433546079414
H           17.81827337905886       22.00537874351394       19.91727406118755
H           17.29935320891660       20.85299935935082       21.17028571162346
H           16.34653692067563       20.35925865806387       17.13858452829820
H           17.28005115352937       21.76861101533389       17.70709721309141
H           18.79876722050625       20.05450455134812       16.67243828230627
H           18.19081602030078       18.84597233284202       17.83852948115703
H           21.86197913929395       22.83804814748591       24.67780238384300
H           20.25241973298446       23.38290912605222       25.21566975123230
H           20.99416629914162       21.57122286828027       26.71182211840465
H           21.31623525888392       20.51782415592488       25.32756016777705
H           18.57953519588494       21.62910232327066       26.13768769431294
H           19.10632594250326       19.94411048580119       26.29124355693341
H           12.96064233896526       18.00838400700846       18.24087409640962
H           14.46532339422072       19.88713838858894       17.88250605204199
H           16.84882664877118       18.75221149057773       21.26517337740176
