151
 energy: -221.329640027971 gnorm: 0.004384104136 xtb: 6.7.1 (edcfbbe)
C            9.92165641592695       16.56405071198322       23.91706259242437
N           11.13637658804340       14.13138964535122       24.57651502873084
O           10.01480346244598       15.02047648903749       21.99889926077167
C           10.78470306092842       15.81245585693394       22.90295393667185
N           13.32001782292789       15.56173945916833       20.92942815268566
O           16.64723883907589       19.29340813246425       24.00942212563836
C            9.16122737102516       15.74292429297213       21.13764411343270
N           18.92940889428030       21.66530608923757       23.18796926976427
O           27.23576186544379       17.56202384927293       14.07766635533286
C           11.70185504199073       14.82431866896342       23.60005188244730
N           20.29898177522037       21.94673496064224       23.25113859722278
O           23.78212423703699       21.07037281088627       17.85103189902543
C           11.83993171830704       13.21992708105430       25.22508449894406
N           21.15412524393314       21.75630677260608       19.76172543905158
O           19.47167466061402       22.58742302702669       18.50960020971652
C           13.15814829012743       12.92575899824897       24.91834444048854
N           21.91599559989432       21.63865968440017       16.73713835700513
O           19.58973216168548       19.35532264228416       18.64186811502228
C           13.76114768976449       13.64919326488138       23.90583837114184
N           25.10706766113526       18.34308856910536       14.16831406009835
O           22.28062930783507       22.03121197098687       22.18400624334800
C           13.04391128426210       14.63567157473704       23.22788148945224
N           27.85353004313799       19.39873874889474        9.11291820952408
O           16.27974309418321       21.49062319964732       24.26428964996878
C           13.72947082073252       15.47475979666224       22.24060890404673
N           16.76495464070084       19.49227268426268       19.09757997912241
C           12.51201059281177       14.59120138031546       20.23452695218770
C           13.38146546433770       13.55862981244768       19.51641227781631
C           14.78054791390661       16.33924367668745       22.47284009347763
C           15.54074267961900       16.51217726507856       23.75070444331739
C           15.02949748307279       17.61440615601558       24.70503913395746
C           15.80331158918847       17.51815516485492       26.02353189271388
C           13.53587725732788       17.45062792489555       24.98122443904523
C           15.24270347145629       19.00054925831920       24.08539383864459
C           17.02776653882052       20.54383809919414       24.14924471841232
C           18.54169815563014       20.67664798641995       24.19249698985243
C           21.07502959204279       21.80862725547201       22.16662681746070
C           20.34902658147508       21.36890588157393       20.89412757765944
C           20.66572167020624       22.37156365632863       18.68271067693512
C           21.73672603467796       22.76364019983462       17.65669565000551
C           21.39903688467228       24.07904125468432       16.93813374948090
C           22.49912862862475       24.44100027490571       15.94314950745937
C           21.24682680587583       25.19119492717268       17.97497538035951
C           22.98525947738626       20.85862605860750       16.93499988883298
C           23.29733167230574       19.71238318818138       15.94896896114992
C           24.48589179319048       18.90182269254120       16.46876774970190
C           24.85825345963401       17.79723308303060       15.48407489289055
C           26.28510430006508       18.14047469102562       13.54888551326690
C           26.34813560043382       18.60719057669856       12.18829160696264
C           26.50920961237652       18.85932197960360       11.02115481723834
C           26.48452797502741       19.21784151164375        9.60718758632896
C           28.71918863316343       20.17035430051490        9.97800685387331
C           27.94511565594467       19.87454739820988        7.74772910829092
C           25.83817862767371       18.02184679371612        8.88206456782613
C           25.58117335794191       20.46340117784102        9.47876590252728
C           23.99896153776118       19.08097671253149       13.61433289002705
C           23.60266351970963       20.23598601404327       14.54242370001660
C           20.82511175540770       21.41062372682558       15.81171808988512
C           20.10508415445885       19.85159026966829       20.94672591517214
C           19.05872889666891       19.33129273736142       19.96218953193866
C           17.72668280879957       20.10229557403041       19.99230132832332
C           17.31950297288619       19.50501957201559       17.75518931785473
C           18.67204401646902       18.77995621201327       17.73177600452099
C           20.81848488946839       22.39220159448161       24.53434116974933
C           20.47628035387330       21.36761128094811       25.61491210168069
C           18.97268479615429       21.09565578310513       25.60947846261340
C           15.03739385168683       17.00326052911360       21.23361775497509
C           14.11215155521116       16.48524596789836       20.30044289421398
C           14.08216678062902       16.95918881827079       18.99509654149755
C           14.97502886741886       17.93925675500105       18.63563148338246
C           15.94583019211710       18.44831121144758       19.52821433551465
C           15.96988070046213       17.96418467224949       20.83119165414770
F           22.19511186853505       18.84350554258031       15.87956892721363
H           10.56580746106726       17.06245107994194       24.63500487894040
H            9.30850632046564       17.31071110668443       23.41954214055134
H            9.28744517431934       15.85523935227987       24.43951042371856
H           11.38234132496145       16.53491651863589       22.32151683170290
H            8.77757520759006       15.01204035252343       20.42783180410162
H            8.32392440860428       16.19327760212554       21.67773166696202
H            9.71304078469594       16.52530359721968       20.60415613175121
H           11.31067637065620       12.70795157862980       26.01751916278514
H           13.69320505110054       12.15892431103911       25.45516412628245
H           14.78537293323512       13.45238891427215       23.62325478686915
H           11.86111869424200       14.09505828739575       20.95688469374320
H           11.88340071647435       15.11539876223587       19.50938218238463
H           12.75085759805573       12.82549830394892       19.02224885059650
H           14.01048758758873       14.04285311742098       18.77243530549584
H           14.02363949397015       13.04572112054378       20.22911536304140
H           15.52082559479458       15.57244871344222       24.30426912871243
H           16.57998871253080       16.73871688275363       23.50411685790260
H           15.58565337871722       16.57353488041084       26.51465327898606
H           16.87381686429299       17.57677102093085       25.84403767791144
H           15.51752320818766       18.32717195372726       26.69180054051534
H           13.33430210024516       16.45918828412446       25.37839250700967
H           13.20190757508218       18.18722372281912       25.70778905637728
H           12.96323317903593       17.57917183816875       24.06708034122190
H           14.76602935154868       19.77840800113578       24.69072382803095
H           14.82765310214746       19.04005127995583       23.07462980888486
H           18.99561882960831       19.71557036875934       23.93241813468164
H           18.38989802346557       22.51799257013544       23.34990464425456
H           19.39904270058718       21.90231032234772       20.82851604428029
H           22.15025964017735       21.60488826421070       19.86024504048464
H           22.69214821038990       22.88599461637898       18.17765816759573
H           20.44444040337240       23.96740218318944       16.41924771793034
H           22.22554587567918       25.34213032325857       15.39989461644953
H           23.43191708738426       24.62657365677978       16.47091288559660
H           22.66897512808254       23.64323544716318       15.22566012700182
H           20.41406127299959       24.98127467325740       18.64182373528288
H           22.15208014036294       25.28815876134726       18.57023804005221
H           21.05530965815373       26.13759804955641       17.47698516312570
H           25.32311154078462       19.58279972051794       16.61841584103093
H           24.22870964532527       18.46703349376948       17.43459218434158
H           24.03544543769039       17.07695786066561       15.41457568406342
H           25.76266768452291       17.28230479255912       15.81106639593672
H           28.46858021373566       21.24345086826722       10.00332459315919
H           28.67483004927499       19.77552974483411       10.99188407332066
H           29.74122410402497       20.07000111594690        9.61307773872713
H           28.96778266729540       19.71606957329507        7.40570178750077
H           27.28100339857918       19.30613750768743        7.10425449599736
H           27.71565598697189       20.94594671994294        7.64897554278634
H           24.95585880916167       17.69379909411336        9.42505134558456
H           25.54057656066061       18.29373403636006        7.87381773369354
H           26.54929797075663       17.20224673828007        8.83753019611170
H           26.01014293313950       21.30225089738394       10.02230781092658
H           25.46192757079588       20.73664780386992        8.43397665335317
H           24.60106481227883       20.24468210301239        9.89458997750076
H           24.28212208613008       19.47120305162672       12.63640811760687
H           23.14363672781429       18.40523456281992       13.49967891162665
H           22.73274947653078       20.73800081499774       14.12395979072118
H           24.42154699057021       20.95109799812125       14.62474764454876
H           20.79144153739648       20.37853633065618       15.48605636284396
H           19.89257981833656       21.63086207756124       16.33008913025802
H           20.91009171138785       22.06940094428560       14.94671394731686
H           21.05001769443430       19.34280603289146       20.74641876279952
H           19.76878102707858       19.58855493508266       21.94648962707683
H           18.85054143424941       18.27588559299868       20.21836740279956
H           17.90234741340528       21.11316669326635       19.61131472445152
H           17.33482101549732       20.17116701066456       21.00538723664999
H           16.64810479801011       19.03584990457247       17.04184149534823
H           17.47115037572437       20.55200292802217       17.47275635555089
H           19.14194125110501       18.84326161071629       16.75071987247860
H           18.51712247902927       17.72048741968558       17.99406914964550
H           21.89486525182900       22.51814264865531       24.42243512673908
H           20.36295574356763       23.35912823821344       24.77467864499658
H           20.78382591488021       21.75450117663229       26.58543063306072
H           21.01992918691763       20.44203689996711       25.42302176921329
H           18.42317777407175       21.99830631242137       25.88722215086698
H           18.72218030479091       20.30748615090407       26.31878166394847
H           13.36287332221860       16.58957889484911       18.28015049225260
H           14.90905417382615       18.34156243440940       17.63771735001466
H           16.69428232493244       18.31392486555038       21.54937502050038
