151
 energy: -221.323664605044 gnorm: 0.003603540307 xtb: 6.7.1 (edcfbbe)
C            9.83888933781658       17.35247735620680       21.31792191544311
N            9.91489237922079       15.43336982350764       23.43306337075265
O           10.34667510150044       15.11074636321277       20.43291560694081
C           10.78612825969067       16.15501336676812       21.30798934738275
N           13.81142347986959       14.79256502412619       21.28378231576250
O           16.18056437914788       19.71944466515019       23.23256832715607
C            9.01404223016784       14.66162059109209       20.60325281846648
N           18.95920627348347       21.67581447206232       22.28057682467495
O           27.63928494612490       18.31927661406506       13.64981759879413
C           11.01181892527939       15.60483546547885       22.70616887662119
N           20.22934885611086       22.01004577639318       22.75463672464401
O           24.92731739672815       21.58444774530976       17.46814238733561
C           10.00633865816875       14.92217514735587       24.64882939171036
N           21.81027199303147       21.12715906464706       19.76735179455509
O           21.21216481539125       23.27162875338908       20.04560269660735
C           11.21120593560670       14.54953344162316       25.22006651540501
N           22.68724923617795       21.53466592527801       17.26904601627875
O           20.94996390714455       18.53168070617673       19.08387337261763
C           12.36326470554995       14.73062763927339       24.47537465775948
N           25.44385174903494       18.21612627576578       14.23144157990976
O           22.46267961264645       21.88858053992495       22.47590572299612
C           12.28650965640920       15.26584202666756       23.19057761631974
N           26.35608774891329       19.94984752891956        8.78002232774900
O           16.27284818608000       21.54044682213119       21.93354455281105
C           13.52560563954298       15.48826451938248       22.43557494243296
N           18.66796154501155       17.07418277921163       19.91785385962817
C           13.10049712337578       13.63288197835205       20.80753934643916
C           13.43991441579267       12.38768587220459       21.62623609492512
C           14.54457387852886       16.37209343393627       22.72634290170659
C           14.68955433077060       17.22084651402422       23.95072783661081
C           14.09499006755906       18.64364529804698       23.88748302672424
C           14.24831525557001       19.29995030650620       25.26201097802405
C           12.61914806505477       18.59876049769764       23.49947917148809
C           14.82245611525066       19.48170240556759       22.83221053462827
C           16.77983292608162       20.77576631158341       22.72602336227456
C           18.18046055726300       20.95937560681320       23.28213578335447
C           21.33058465540877       21.60091943639334       22.10532969422639
C           21.06404179743515       20.67053167389595       20.91960064829585
C           21.79015420072857       22.40991075393608       19.39171951970451
C           22.59128742594184       22.71512610361431       18.12084822445815
C           22.16028776855953       23.99001517158094       17.35499532171654
C           22.73685949859823       25.21280043749227       18.07019520111060
C           20.65173011942128       24.17024194652654       17.18803213154252
C           23.91065468429375       21.03036191350822       17.05004446748847
C           24.06990799918735       19.71709602071625       16.25542735020078
C           25.47955550287361       19.15982413131151       16.47357605525275
C           25.72033225144151       17.91489611208939       15.61836319222272
C           26.45130849051144       18.50203421604776       13.38101041794357
C           26.03046176672957       19.01807357458463       12.10432709612585
C           25.77364315953482       19.50682853239144       11.03449065510997
C           25.30627180839608       20.11097479050387        9.79027924065665
C           27.63840032558313       20.49871571992729        9.17129622120025
C           26.00231511736940       20.37815948380312        7.44310154669008
C           24.04082833995398       19.33900181360762        9.37954772495112
C           24.93391961018003       21.57627060768798       10.10898751607038
C           24.07641194624685       18.61768006816053       14.00449474900651
C           23.78692836981956       19.91616061447418       14.76405183782427
C           21.44310518930374       21.04451346487203       16.70623120325486
C           21.47227894222172       19.24554517124578       21.30247179160529
C           20.77808905267498       18.18148561247280       20.44566979664000
C           19.29054409977673       18.02281142660246       20.81724614990518
C           18.82937232946424       17.51677181929808       18.54271087109971
C           20.32107985763183       17.59261474901932       18.23780127826249
C           20.27863097728225       22.79985874897824       23.97194453920452
C           19.53345829463155       22.05009396979526       25.07720262902229
C           18.11200607729869       21.72523637017800       24.61621809401173
C           15.50557545246760       16.23218023571877       21.67946790291588
C           15.02315562847637       15.21874007993920       20.81901809591623
C           15.76753607554801       14.80885067509396       19.71886766745622
C           16.95860405620191       15.44340848419372       19.46814306846693
C           17.43523313075260       16.50061411854982       20.27195096683073
C           16.71261112806143       16.87877270094733       21.39162610199755
F           23.17351774079947       18.76163559002228       16.75969322175935
H            9.59573240809519       17.62951890113439       20.29541430940326
H            8.93125248344093       17.10466451672781       21.85904877462477
H           10.31801662421368       18.19343357710813       21.80867988927019
H           11.75061591384895       16.44455741093429       20.87445045491178
H            8.94904832194284       13.72864091304753       20.04678580164444
H            8.78894193332887       14.48380432995964       21.65730483061396
H            8.30056206268586       15.38006717365868       20.19222647773103
H            9.06814729121173       14.81272337135822       25.17556828663959
H           11.24422318956153       14.12979057171674       26.21215298728473
H           13.32602859571083       14.44681613272679       24.87514742646752
H           12.02740976449090       13.82676447099114       20.84620881866248
H           13.37546522884193       13.47915206176632       19.76310999641241
H           13.12656813408708       12.51664999485715       22.65985586338511
H           12.92433727849653       11.52611210407810       21.21301437910914
H           14.51112037045917       12.20132740391045       21.60770397278102
H           14.21519074441752       16.71025891985437       24.79073304885452
H           15.75510967770240       17.31561051906640       24.17028161168730
H           13.66139582606992       18.76039268097327       26.00028718053722
H           15.28957249076376       19.29227725778188       25.57249405307266
H           13.90182433614929       20.33046679251538       25.23332535860474
H           12.18881448344191       19.59710914348659       23.52296427971287
H           12.50997394056540       18.19447295010461       22.49753118345273
H           12.06571513273561       17.96799787086326       24.18996872527597
H           14.33198552938221       20.45110541417443       22.69705478807905
H           14.83458128015108       18.96311256873712       21.86914015637983
H           18.64324318623306       19.97987985510283       23.43821932689234
H           18.45330250997808       22.51489752386983       21.99192697088528
H           19.99411851427680       20.72197201313616       20.69397896109275
H           22.23912951035610       20.41151970484166       19.20147910241018
H           23.61642621764511       22.89851080422516       18.47398238596434
H           22.62390524317648       23.92208832382830       16.36343056645850
H           23.82167166883189       25.15572156358296       18.12323883169319
H           22.46391729017541       26.12174079988323       17.54168786926761
H           22.34154043657319       25.26420815735057       19.08119581390464
H           20.20582149954950       23.39445908250974       16.57624673646081
H           20.16829647192060       24.17765701833843       18.16113554127010
H           20.46222256482001       25.12733382896517       16.70839131237542
H           26.19859428242257       19.93831221588568       16.21696860837273
H           25.60708961369940       18.92072906550982       17.52989127271551
H           25.06026027267827       17.10442744240371       15.93864128032361
H           26.75993329202332       17.59622740620832       15.70239300297739
H           27.87271810282605       20.19882805184411       10.19173551881983
H           28.40295625216339       20.09179032436169        8.50973713888359
H           27.67910373810601       21.59716664345334        9.10540522340325
H           26.81860738095140       20.09795025589427        6.77865941865044
H           25.10511463534561       19.86596411675444        7.10954496308460
H           25.85393006006930       21.46542076676367        7.35746324024802
H           23.51008751706836       19.86139222506005        8.58991567932111
H           24.31248793988747       18.34400676458399        9.03972670651862
H           23.37766826267410       19.24959964620685       10.23549593307693
H           25.79846942601511       22.12122324693168       10.47749616766735
H           24.55683882754574       22.06569105625223        9.21508696466720
H           24.16108474953249       21.59906042100930       10.87107982833308
H           23.90909643367743       18.75526218664209       12.93710880076530
H           23.42265558282969       17.82394200790716       14.37571457187089
H           22.75189692772318       20.20693473895067       14.60449559183692
H           24.44036625449193       20.71144006880970       14.40208297116712
H           21.45794588745356       19.96840949951149       16.58520438857893
H           20.63776097351438       21.29091848401623       17.39265571911478
H           21.25087076866537       21.52316217349062       15.74515453434261
H           22.55387949227546       19.16066509849221       21.19492256153612
H           21.22565542373578       19.06713256592467       22.34878611247671
H           21.26522305431929       17.20707528298546       20.61945149902617
H           18.79158538726617       19.00550845857389       20.77762785424331
H           19.23838558437730       17.63543396798511       21.83513600432605
H           18.34536256578909       16.82472151329520       17.85905448183011
H           18.38500253093264       18.51752878230221       18.40537092956388
H           20.49974050623550       17.93186613769073       17.21842608824794
H           20.77630359690670       16.60322066980885       18.38010837045949
H           21.32981050368249       22.94980538140178       24.21737590080033
H           19.81116587405853       23.77189027783450       23.78153425211291
H           19.50539106506471       22.66229565132267       25.97715211047895
H           20.06742046355527       21.12560094887612       25.30295645063178
H           17.55193426668670       22.65092500846184       24.46231437140814
H           17.59210377661902       21.12343902467875       25.36034013412220
H           15.43373482136927       14.00962085589878       19.07465742405114
H           17.55682950716021       15.10714052135934       18.63580578316692
H           17.05382968357149       17.66971232017210       22.04003568655335
