151
 energy: -221.316054205246 gnorm: 0.003900607203 xtb: 6.7.1 (edcfbbe)
C            9.77821335986958       16.32024081854598       22.07013300234745
N           10.81244231227143       13.85018199482474       22.94235975473425
O           10.56504419992326       14.89401505374913       20.21767227832491
C           10.95648223117242       15.65144331959151       21.36191663818056
N           14.26838547016155       15.35442868199536       20.43637536538960
O           15.96639767618500       19.69557451574604       23.58661028449222
C            9.89777904882715       15.62977964396933       19.21417493914909
N           18.34429814849322       22.02714873660285       22.36226529631224
O           27.11119221761494       17.88472724597617       13.57994689070379
C           11.63345004386129       14.66784757946411       22.29512163539316
N           19.36067735912931       22.88213738788231       22.80553765434444
O           24.95836851170150       22.23800226753000       17.44782007505713
C           11.30710179099210       12.95371824843385       23.77438218183299
N           21.84493772065006       21.94983135354331       20.41304019114714
O           20.71977502672438       23.79342687197954       19.81279644459688
C           12.66488400565156       12.81994419201549       24.02384664314389
N           22.74370460486961       21.98238336248091       17.72442412347043
O           21.73469396559453       19.12236051144088       20.22807445860768
C           13.52590932481389       13.66829624905988       23.35694413115242
N           25.13053744233829       18.45750433219228       14.53074815549841
O           21.52345651705382       23.50699218528348       22.71529895950055
C           13.02127847397866       14.61814973487547       22.46409094509013
N           25.28651078844304       18.28862220391336        8.72460293212445
O           15.77117560321488       21.22462639444687       21.96617670459019
C           14.01138574117760       15.46233680630564       21.78626674623989
N           19.24695470688262       17.72551975707403       20.35890106622055
C           13.67433685855967       14.41160720119886       19.52204775855442
C           14.46584955997667       13.10495166412136       19.48163932078146
C           14.94766823411639       16.27913171905570       22.38394539917700
C           15.02593240977468       16.72315220956078       23.80833966506075
C           14.24077402166466       18.01778533551409       24.12201321293921
C           14.46143505318806       18.39000225891006       25.58939547760496
C           12.74920030513969       17.78893589638926       23.86995958955809
C           14.67731769818834       19.17517430240869       23.21564491829841
C           16.37730534007017       20.74221828988792       22.89928269019428
C           17.65056558660425       21.35770423937080       23.45726205567111
C           20.62005130278431       22.76468488179977       22.35145491936765
C           20.85017502596747       21.59016537725874       21.39975126603890
C           21.66522583311786       23.03131659685487       19.64665483182661
C           22.73233031073902       23.18902968260910       18.55593546252888
C           22.63463204083192       24.47893400984347       17.71446299127432
C           22.82780288234599       25.69433037514946       18.61967120696263
C           21.33523267299618       24.59754505887768       16.92226571146162
C           23.93674296104986       21.57644550741748       17.26609858167879
C           24.05677379369297       20.23151232882207       16.52123415083267
C           25.50260742940918       19.72998527960653       16.58976661979676
C           25.63421642521007       18.38038318501688       15.88353356897629
C           25.92794626102378       18.21336094283425       13.47592817852013
C           25.29865442546279       18.34621290214545       12.18712243675294
C           24.88745576482186       18.42048759194595       11.05765166929561
C           24.27208682647356       18.57860149027422        9.74372241157591
C           26.50521119487802       19.05865930265319        8.86412423782329
C           24.81699770323794       18.32696110505789        7.35573498191648
C           23.13013244088438       17.54972259180148        9.66255148732055
C           23.68593022877992       20.00680910940134        9.68433330615450
C           23.76178798830865       18.90252169303431       14.42991164495685
C           23.60862698324140       20.29125500776393       15.05882751862602
C           21.46725109271849       21.34451126316936       17.45107963294322
C           21.29033500125503       20.37288125342482       22.21499148799538
C           21.06859676737541       19.05055942385175       21.47341141727213
C           19.56442990767763       18.74165621239012       21.35236155809496
C           20.02014442625171       17.83047510442159       19.13928896283195
C           21.49703558262978       17.94148772589184       19.49456804199368
C           18.98585572282996       23.89223834852169       23.77875142473704
C           18.40824682893187       23.18944853433995       25.00560210255765
C           17.22027699274938       22.32892729221145       24.57925374483107
C           15.87788843448623       16.63749892011909       21.36458380581345
C           15.42532657112216       16.03848679057223       20.16970350810556
C           16.15907307635237       16.18128523909866       19.00113512418249
C           17.38086703411754       16.81255562003132       19.06835792428304
C           17.91468422385746       17.31134805132235       20.27744396664721
C           17.10908258874041       17.28681870872910       21.40868338547481
F           23.26487935654323       19.28370516206573       17.17896088822373
H            9.01122352295099       15.57501093159434       22.25805767998798
H           10.11415332273561       16.72631117679638       23.01902091601500
H            9.37032462939228       17.12652021589379       21.46730691597456
H           11.68354539106580       16.41733209832208       21.03850742443689
H            9.89341943049115       14.99110688643685       18.33341440110532
H            8.86784141837693       15.85733750982364       19.50117986394049
H           10.43007664333147       16.56056801921383       18.99153860519730
H           10.57840652817817       12.32017471993392       24.26159257224140
H           13.03211740576456       12.07348593754894       24.70934171567980
H           14.59474738043804       13.60055591724340       23.49889532120359
H           12.64452691361310       14.21496788093211       19.82468085098643
H           13.66111158991616       14.86928803838930       18.52933290135008
H           14.42245022068706       12.60876903729921       20.44851980831209
H           14.04906624454020       12.44188295315453       18.72979520586648
H           15.50787071508620       13.30347724638546       19.23975924803247
H           14.63795936192394       15.93934905511120       24.46152506421103
H           16.07455486411758       16.88942503953461       24.05932333667246
H           14.12159724286067       17.58220618821286       26.23150737734150
H           15.51535228108479       18.56992876886778       25.78219519581429
H           13.90434543328432       19.28896676230180       25.84095083733621
H           12.16721296035655       18.64582986649334       24.19966350800508
H           12.56487749768519       17.63289137749432       22.81114536411938
H           12.40927966358004       16.90977224511077       24.41121333152684
H           13.95877647634351       19.99914697891883       23.28437334890933
H           14.72243197339645       18.85555002901853       22.16997426005948
H           18.30142806249542       20.57910244692266       23.86449830615001
H           17.65789145757539       22.55251119179931       21.81520521258952
H           19.90064616240805       21.39751359289576       20.88969355477721
H           22.56992202615542       21.27560394508788       20.21940573469433
H           23.70717459756399       23.22392968610810       19.06137813137147
H           23.47416889508981       24.43733706547477       17.00926691670099
H           23.77560689569183       25.63242983751042       19.14936410120030
H           22.82130355941461       26.60522648369389       18.02742430918701
H           22.02527969029541       25.74800454942936       19.35089603514734
H           21.24197018234994       23.79505729174982       16.19709378566493
H           20.48302124832817       24.58006052694220       17.59598173818119
H           21.32733883052938       25.54289669022490       16.38565075809602
H           26.14548176705089       20.47719480625061       16.12658788145839
H           25.80103396669071       19.62793695156787       17.63317728237597
H           25.06098611002895       17.62425795298846       16.43035106799384
H           26.68051074542601       18.07454244320206       15.83686868368204
H           26.84289336927247       19.03250250291108        9.89874658050225
H           27.27334362872475       18.60081488816883        8.24101546892290
H           26.39273550225675       20.10839423811560        8.55179649577170
H           25.59997928463503       17.90664754852818        6.72430601466515
H           23.92766146513093       17.71484127926475        7.24366513559670
H           24.60448487948592       19.34608446405403        6.99765896649188
H           22.45307853298172       17.79060380965824        8.84808091679182
H           23.54310123135079       16.55672908514043        9.51115191348171
H           22.56524547487311       17.55721469944767       10.59089161212495
H           24.46264579412722       20.74888123149925        9.85809897723593
H           23.23533282661537       20.18374214753539        8.71096009436663
H           22.92241169420273       20.12055668087608       10.44888702519847
H           23.46959140114842       18.92832394026241       13.38081128035333
H           23.12231760706620       18.19294871433949       14.96585476908519
H           22.56881897640412       20.59968583606691       14.98016411322517
H           24.23410685521716       21.01697786353529       14.53959654258354
H           21.41804009065892       20.35543747086913       17.90392924782492
H           20.67842112767137       21.95962947502558       17.87351820976660
H           21.29263954563962       21.26245243577089       16.37942132583150
H           22.34767310854887       20.48481143842339       22.45515329656808
H           20.72995985040685       20.34306428134927       23.14829602561452
H           21.53402470512030       18.23595814231906       22.05537526723497
H           19.00002269677888       19.66393523608773       21.14607267978705
H           19.25854192872648       18.37144861523726       22.33294889638733
H           19.88415371068453       16.92569100985080       18.54838014917666
H           19.72378627626006       18.70814707140231       18.54130479271209
H           22.10948727798646       17.99847419171283       18.59864655083743
H           21.79957135148009       17.06822766519148       20.08872213326539
H           19.88418609767183       24.46123656970183       24.01620249960278
H           18.24289545426619       24.56036349953479       23.33041563831091
H           18.09075984357039       23.92968092279740       25.73835384071587
H           19.18167726165390       22.56437867756231       25.45446307575617
H           16.42297631999872       22.97290040308421       24.19941611530492
H           16.83377239135939       21.75673543049633       25.42124702027387
H           15.80551600375265       15.79406454977058       18.05752279114606
H           17.93322599655958       16.91357576717385       18.14999166283415
H           17.43001366774990       17.70881863974621       22.34545757582678
