151
 energy: -221.324900033157 gnorm: 0.009873748760 xtb: 6.7.1 (edcfbbe)
C           10.32169231178491       16.62244345224424       24.63267583636480
N           11.07176506227460       13.90575446001934       24.48193385409964
O            9.78789025020176       15.58946176898815       22.46409689292506
C           10.84030081261452       16.00138395069524       23.33459406603864
N           13.06743012426687       15.79451432346073       20.90609453632473
O           16.99492899764879       18.62645975652891       23.90570826803921
C            9.00165136646902       16.63864141771629       21.93767381569688
N           18.98020942837555       21.28959509073922       22.64683094396383
O           26.52904459966797       17.28034107098421       14.94461834775411
C           11.63645070447590       14.74188824838161       23.62256995505188
N           20.23669089786561       21.87062459958292       22.83868332908807
O           23.52048204275794       21.67864655745950       17.71343170652621
C           11.68026581581181       12.77404035059837       24.78783490847441
N           21.23723671651576       22.35656400466191       19.39919068351882
O           19.46832081383815       23.37574127744737       18.41585310810277
C           12.89750106008360       12.39943538851461       24.24017531976631
N           21.77975496592124       22.37865049151669       16.47829787168795
O           19.64687189243894       20.25592624366728       18.15019233205463
C           13.49487687728646       13.26405600824824       23.34398031670840
N           24.50789481623938       18.25965904763705       14.61383851648586
O           22.12249572958616       22.67867327636094       21.91505430300461
C           12.87198124480928       14.47071083110102       23.01673936769940
N           27.95101484562220       19.54024001435092       10.27180917915685
O           16.39120948915369       20.64920449591574       23.16133417150682
C           13.57850340577409       15.39051311508861       22.11913212321488
N           17.39623190323399       18.72776244439679       19.04389708330256
C           11.95524719608683       15.19580201749465       20.20893664138625
C           12.42456155376759       14.07379220587702       19.28347495221512
C           14.82330963133719       15.94949098558351       22.32283967632395
C           15.71780146186608       15.81300264259259       23.51373936583011
C           15.47976203330485       16.85578184225007       24.63122332211497
C           16.49831287570376       16.62147824973261       25.74955167200666
C           14.06581977629988       16.71634342949476       25.19474556224851
C           15.61439833412827       18.28039380624318       24.08582263209395
C           17.24336726078954       19.84691226795098       23.48443576585422
C           18.72171122454497       20.18109909159087       23.55265432259042
C           21.03872483570838       22.11802918472229       21.79254428532445
C           20.51772722974579       21.65109700506990       20.43184868480404
C           20.66439504075215       23.11327678791305       18.45769058667585
C           21.66365392495221       23.54287691913720       17.36808199363060
C           21.28509052443571       24.84284230227901       16.65013178693812
C           22.34056811834350       25.19864641072409       15.60431395234124
C           21.17294489742712       25.96860282890431       17.67606118957272
C           22.71253603244013       21.47703451166117       16.80072894579816
C           22.86106696764672       20.17073964203144       15.99585313400163
C           23.79889410150352       19.22212330337232       16.74493022767409
C           24.03574867577051       17.94434157423231       15.94211189389512
C           25.74366109242580       17.89780002063216       14.22090197274049
C           26.08051385957992       18.24323371571786       12.86349155576512
C           26.47698651350376       18.40671908489793       11.73754865267865
C           26.81286832910587       18.61611718679652       10.33031465262524
C           27.70270979860633       20.81830708071618       10.90924411958532
C           28.53720126319459       19.72350442256181        8.96152174106174
C           27.20881738444007       17.23744085184939        9.77849058814060
C           25.54148321148661       19.11667900860275        9.61180811269893
C           23.61001878731332       19.09464354033881       13.85414139191130
C           23.38034460583284       20.42721797605325       14.57766910273079
C           20.70117032597035       22.21864096796920       15.52749655952166
C           20.72272544794368       20.13197072769945       20.29105299220587
C           19.72368317900981       19.47763291653813       19.33104639280155
C           18.34450839763116       19.29700638477237       19.98626907330045
C           17.33595275463278       19.54888784381219       17.84880357079543
C           18.73532943013206       19.67037414907977       17.24898932288918
C           20.59462629671733       22.26502522792710       24.19298291321528
C           20.46771451012362       21.05498609420079       25.11385805620111
C           19.04296658341157       20.51465136937712       25.02492350768520
C           15.11305572134456       16.72418216311866       21.15873713276415
C           13.99828627282256       16.59799651636882       20.30122885713501
C           13.97956100594619       17.26288096748774       19.08417158049415
C           15.08137987675923       18.00393620515243       18.72208825985910
C           16.24126705118765       18.09764294897735       19.52385486873716
C           16.22716628589222       17.46294080238950       20.75991150239052
F           21.61838749854077       19.52301530070291       15.90743629916910
H           11.15119958873050       16.78292025026238       25.31436238455997
H            9.83969304978443       17.57598393417524       24.43654368639001
H            9.61391967936406       15.93964589591673       25.09241126915662
H           11.47499953532849       16.72949109229440       22.80044572843906
H            8.40220983879091       16.19174942102554       21.14921702398802
H            8.34110175188501       17.06612546208635       22.69473102738464
H            9.63588648158308       17.42629801948569       21.51892249129632
H           11.16508452054089       12.15225590911106       25.50569792835402
H           13.36142070438168       11.46382186195179       24.50989630205765
H           14.43807683555322       13.01767387610026       22.87812519126680
H           11.24441594884997       14.80803870819777       20.94114940575715
H           11.46062284445015       15.97610143513312       19.62323952687295
H           12.87332629906894       13.27098629649061       19.86247072840657
H           11.58050752757156       13.67605016846055       18.72974398780238
H           13.16234662566571       14.45430956631627       18.58169816016797
H           15.59307802590425       14.82438344114058       23.95929550894011
H           16.75139607302767       15.90744214528473       23.17497336162000
H           17.51068047824396       16.66683317175995       25.36107356478610
H           16.39009575089923       17.37428781705672       26.52611747650693
H           16.33899558287940       15.64301076734881       26.19395486319979
H           13.88589001401811       15.69428098265508       25.51727011304046
H           13.92969563650684       17.37637331375635       26.04739539670626
H           13.33312300862261       16.97253206583296       24.43561778597447
H           15.17864809039219       19.00445808300341       24.78099189204749
H           15.09733970779692       18.38423549741158       23.12680386288325
H           19.31325882365016       19.31655691409668       23.23883459949166
H           18.23760450265411       21.98274246373808       22.75733596451006
H           19.46351434216998       21.91355454344586       20.32444832525136
H           22.23383510135543       22.19356810979649       19.36038174838940
H           22.64520530985538       23.67835083440706       17.83382736172770
H           20.30536485780180       24.72424389812148       16.17973586724395
H           22.45826762898287       24.41315945596146       14.86486314923296
H           22.05937429456665       26.11250545018140       15.09020673940981
H           23.30145413728334       25.35514801630270       16.08707565452012
H           22.11792408779652       26.11003589071493       18.19602512006948
H           20.91063299749632       26.89640119693193       17.17654663026009
H           20.40308244341401       25.73950802175379       18.40593594768785
H           24.73990759550817       19.73921378858901       16.92818575156811
H           23.35492722972408       18.97504330797297       17.70935904489003
H           23.10026047277770       17.38236975065179       15.85726532333257
H           24.79015285763845       17.32783620941635       16.43072445133553
H           27.24026055124418       20.65473881779993       11.88085717976443
H           28.66019984746760       21.31541268898716       11.06279906447292
H           27.06186696805359       21.48564037670766       10.31314024644055
H           29.42746289309255       20.34068723030976        9.08003985702730
H           28.84584271948572       18.76687311364008        8.55045176772520
H           27.86732159187962       20.22674567989679        8.24828361857672
H           26.47588567346150       16.50213787697579       10.09354419581826
H           27.23949810604574       17.24820356783244        8.69561662278954
H           28.17877818179172       16.94687769076130       10.16978907115556
H           24.74948671147046       18.38212687498723        9.73311512922406
H           25.20300446978762       20.06076157905471       10.02993106896400
H           25.73762476682908       19.24394787038892        8.55036865714709
H           24.03100158690174       19.27060955606565       12.86404394407460
H           22.65218687725131       18.57289280867802       13.75393113098257
H           22.66301102982722       21.02108668709005       14.01198800349035
H           24.31595599027529       20.98258424894987       14.65549427250849
H           19.76037277536901       22.41836766008590       16.03903362272495
H           20.81296914198925       22.93052794703692       14.71270175423881
H           20.66787167321402       21.21701970682333       15.12651756214398
H           21.73737846547372       19.96933491680674       19.92298137578021
H           20.63150451961366       19.65219102025153       21.26358304061100
H           20.09231217396992       18.47286869163840       19.05436452044228
H           17.98734857645843       20.26866948259191       20.36333106426941
H           18.47641137270799       18.62622704572872       20.83213826630374
H           16.70407641013222       19.08538338877572       17.09660257004494
H           16.95622399703331       20.55774514605941       18.07969982776673
H           18.71097355302440       20.31779107655210       16.37358975546590
H           19.09891081614101       18.67425034801969       16.95834672791327
H           21.61401371983027       22.64814729561783       24.15793092226286
H           19.91839972669889       23.06358651502105       24.52066821162230
H           20.69995227707441       21.34516485783051       26.13699255549050
H           21.17576623535622       20.28605723765522       24.79996203064396
H           18.33882611410932       21.27244489672078       25.38018714565624
H           18.92387741580461       19.61810431524167       25.63264415716111
H           13.12431594017563       17.21744667668224       18.42635289022174
H           15.02867369705160       18.52420724936669       17.78187412394609
H           17.07131079656575       17.50568065414588       21.42838748964676
