151
 energy: -221.321859446050 gnorm: 0.008910933204 xtb: 6.7.1 (edcfbbe)
C            9.85941116719290       16.83480240110449       21.23819560136227
N           10.30337217289150       14.82688762318779       23.15538561386900
O           10.65878458762583       14.73071435856929       20.23903777424130
C           10.99850285300163       15.82678268238003       21.08572224045497
N           14.25324677065933       14.91550919859990       20.97531737952867
O           16.09398618015662       19.91457513018792       23.12877438979388
C           10.42821005054885       15.07165892461369       18.88906831068950
N           18.77043141703775       22.01204301238171       22.37309243841108
O           27.21911517547181       17.77303776078124       13.35348765568686
C           11.34375364462166       15.22006565492172       22.43305329802769
N           19.91699042113596       22.59289782610606       22.91735858256702
O           24.98243048290428       21.58526337665590       17.16584800097555
C           10.49991369892963       14.29175886028992       24.34525482012963
N           22.06517735137231       21.45286698828606       20.33433452012073
O           20.85265596971896       23.21543901574754       19.67005760506516
C           11.75989941553483       14.10858236198879       24.89356728070292
N           22.78604435346078       21.35623940233202       17.58045276241256
O           21.77084058331676       18.57517967922873       20.11505080838701
C           12.85174170959325       14.50535781021436       24.14558035707600
N           25.11352286736609       18.00460712976256       14.17575590979879
O           22.15786680424983       22.82474218997217       22.82569053360438
C           12.66214152588064       15.07943915788817       22.88639233751267
N           24.75224260814855       20.83724009001479        9.49667750643564
O           16.10436564373434       21.74994616719082       21.84222417952581
C           13.85780982479617       15.51010274202712       22.15163271650120
N           19.25186539183393       17.25147642250590       20.40444876342293
C           13.67571706348597       13.73923011518677       20.37525979236750
C           14.37159441387119       12.46732026853422       20.85845205313467
C           14.79053157019008       16.44386882141307       22.55233657769693
C           14.75263653267806       17.29440542787068       23.78316277020770
C           14.06003692236768       18.66320728359124       23.61854167044429
C           14.02763340380415       19.37634805745660       24.97251064381294
C           12.63293738412407       18.48240802807857       23.10305861808883
C           14.81617774149299       19.52330171467731       22.60129349607323
C           16.61105443054944       21.03885312963279       22.68466879417836
C           17.92120921429456       21.38468750938362       23.37149065741155
C           21.12969235784206       22.28350362614097       22.43457672403633
C           21.13476228048421       21.15370303655118       21.39924936541057
C           21.82002660912754       22.48114948239860       19.51344407641453
C           22.82328588800885       22.59556342916989       18.36072491075191
C           22.66212326833704       23.84468970047641       17.46600228678890
C           22.85166294698739       25.10615179195741       18.30642417383644
C           21.33257303290332       23.89127881343698       16.71712352317233
C           23.94399606504921       20.93007685364185       17.06406300140585
C           23.99879168889926       19.60118888551670       16.28853994974220
C           25.40351002049897       18.99830727836030       16.38668637208338
C           25.50607453156664       17.72843256672313       15.53942497020725
C           26.03718464642825       18.07971433217172       13.19530035147952
C           25.52273690647214       18.52042502890008       11.92316650774197
C           25.18342496986999       18.94043642335495       10.84710206550853
C           24.60390739008475       19.37904924157637        9.57865776797456
C           24.17885084578706       21.55858858548408       10.61535682912785
C           24.32869707548783       21.42999127377099        8.24480993326305
C           25.40087324636672       18.69532575493763        8.45648706382055
C           23.14231249269807       18.87937689286868        9.55552824106587
C           23.76179214566653       18.49443747792381       14.05495038722243
C           23.61395312101669       19.81361674150785       14.81999971520228
C           21.50723205721252       20.67548712130467       17.48300294115694
C           21.48437098368807       19.85012977987914       22.11841527755796
C           21.09230916223640       18.58234185200500       21.35706613938498
C           19.57189957604001       18.43983705762642       21.17791667033947
C           19.98071976431449       17.25160452311279       19.14736025680635
C           21.47692478608010       17.38251828279517       19.42128997834985
C           19.71937809916029       23.54832782861844       23.99291399530671
C           18.93662436551513       22.86692853416699       25.11614887382049
C           17.62298146880487       22.31235517053951       24.56645311949225
C           15.84057971307011       16.40647985659525       21.58411843922233
C           15.47453739404112       15.42901267167184       20.63314795171212
C           16.32979914736973       15.11758815034648       19.58706611904497
C           17.54393310769822       15.75878644785716       19.51749689998335
C           17.95361549576936       16.72866299389881       20.45986470217066
C           17.06881300493941       17.06353612010834       21.47938609522482
F           23.11782547340009       18.66829681704731       16.84428418698923
H            9.66004258271702       17.33787976762100       20.29679860281468
H            8.96763215802294       16.31256963071046       21.57259476607028
H           10.13381254254017       17.57779333426053       21.98038907056314
H           11.88734098344177       16.32945378710899       20.66698394543440
H           11.25750699777334       15.66712591371405       18.48989847253457
H           10.36300920020358       14.12703229858175       18.35234866631146
H            9.49253380735902       15.62219402138954       18.76444526065606
H            9.60488548208329       14.00100492633482       24.87796997223223
H           11.88118618907109       13.66998920288201       25.86957180012728
H           13.85738705989607       14.36768798939233       24.51518533214391
H           12.61349299620889       13.69916354409485       20.62175718794626
H           13.77355063898481       13.82723047192347       19.28975170833723
H           14.26176515389380       12.36623279981189       21.93488030621625
H           13.93025295936075       11.59892346942106       20.37847911159161
H           15.43205101964731       12.50046762858008       20.62015641173804
H           14.22769859905589       16.75622354882993       24.57430910719984
H           15.77820302762007       17.47038636110774       24.10933420293124
H           13.41850000190717       18.81551119377793       25.67578593316986
H           15.03128031685402       19.47204473759555       25.38040646966665
H           13.60257820039082       20.37218559831181       24.86473249173239
H           12.11484547927479       19.43677680412957       23.06742686014266
H           12.64368285880149       18.05595771888059       22.10395790279489
H           12.08216284837120       17.81174454118068       23.75856819675555
H           14.25506587472995       20.43206763393955       22.36017120955003
H           14.98904702329777       18.96473759064047       21.67714595924305
H           18.40743928221682       20.46930339096776       23.72156555610662
H           18.23076049889015       22.70048627338380       21.85440916611915
H           20.13222011038443       21.11521620580267       20.96556184230904
H           22.89943099169666       20.89790521048467       20.26357116610974
H           23.82714962129861       22.65823355135688       18.80097964351621
H           23.47480751784181       23.79212778256478       16.73201058315199
H           23.80945788728903       25.08880250944017       18.82225475582115
H           22.81479224352581       25.98694704797979       17.67216955574833
H           22.06066686410274       25.18194372319167       19.04790155593368
H           21.23805276189968       23.04958380370256       16.03778000673972
H           20.50664451543027       23.88672997235124       17.42337219573694
H           21.27760522678071       24.80487304540525       16.13328660027360
H           26.11950165063221       19.74473598898181       16.04595298060307
H           25.62189823888178       18.76550051118408       17.42885516331426
H           24.84327401538678       16.95878662979020       15.94508054685286
H           26.53322128733811       17.36102325368950       15.53052044949431
H           24.47343719018872       21.08434303775588       11.54889288377028
H           24.57569170203745       22.57291480113281       10.60599769422514
H           23.08165640240947       21.61944203584588       10.57409431058312
H           24.62711741472068       22.47806966245740        8.25695951928977
H           24.82673949234791       20.94606393356066        7.41044615175262
H           23.23937479664657       21.38862428089521        8.09192595767566
H           24.85850693829204       18.73602669500829        7.51634985984865
H           26.36576650556081       19.17964152389555        8.34325113271306
H           25.56379753174166       17.65170424689815        8.71322411374464
H           22.57818342726800       19.29429883432892       10.38755488468808
H           22.66533748793323       19.16842704784765        8.62307856399074
H           23.13047070607049       17.79611023414780        9.63520691607241
H           23.51747976573635       18.63553016964106       13.00290721820658
H           23.08652027087743       17.74927849630073       14.48568805931495
H           22.58694040770783       20.16964787028488       14.73610056271642
H           24.27996707903186       20.57063145093267       14.40403139933273
H           21.43414561288138       19.89439466379703       18.24047824670547
H           20.71871052401394       21.40535157582033       17.64970812426136
H           21.37303097216137       20.23429626698006       16.50009402179739
H           22.56191101854973       19.83604060337458       22.29315798559550
H           20.98797556454829       19.83899772128279       23.08939374218376
H           21.43654845032762       17.71095262640206       21.94073162638809
H           19.16325119153212       19.33675777670050       20.69074160172421
H           19.14523468357354       18.35617371921043       22.17361224048416
H           19.83630939556135       16.31482384391795       18.61762292351747
H           19.65106473392390       18.08188780956947       18.50310488627038
H           22.03364179036878       17.42168448558943       18.48659712576386
H           21.81411033093535       16.52140225950946       20.01482757791859
H           20.70574156746642       23.87284173392724       24.32316436166887
H           19.16492263618951       24.41131024318227       23.60947694758380
H           18.73471880611606       23.58618304360641       25.90925809476717
H           19.53671490186439       22.05424704934871       25.53090269000357
H           16.98749782035539       23.13325344762552       24.22581967576941
H           17.08904597545398       21.75453712050903       25.33555214978188
H           16.06623094520686       14.37803532776264       18.84732165420859
H           18.19377041495450       15.47592647675045       18.70893822263655
H           17.30651335341680       17.80794772242868       22.21981783476416
