151
 energy: -221.325198190257 gnorm: 0.004915050908 xtb: 6.7.1 (edcfbbe)
C           10.66500999934986       18.16167928425404       23.97373988719191
N           10.52745452976843       15.39967751360852       24.62615050825034
O           10.08394031555541       16.72771633467389       22.06234937456337
C           11.10541883826203       17.07094464812810       22.99787762902831
N           13.33786572386956       15.56471827528593       21.16477844239228
O           16.92545646226024       18.67207910253398       24.07087539208706
C            9.75194926905704       17.73611850839388       21.13318370175336
N           18.91050520005197       21.13111404615180       22.50462623263135
O           26.36375511281621       17.14839266087433       14.22943327824947
C           11.42459528264115       15.77742727149609       23.72814426987144
N           20.11702522960543       21.82033344312485       22.65038885440913
O           23.21214456896337       21.14688172470984       17.07925481689155
C           10.71340269059045       14.27726865570574       25.29706630612997
N           21.13811803843315       21.63626205863140       19.21833207172310
O           19.14861967365629       22.16835872774649       18.29131478797484
C           11.81432532771279       13.45611665163804       25.11051689172229
N           21.29028013117478       21.77350025494459       16.09197289130242
O           20.62450840369058       18.65840814938900       18.45225254519561
C           12.76080214782580       13.84505674959602       24.18066909286487
N           24.35082920191174       18.10761769161953       13.81073390273522
O           22.01010873840259       22.54204653190981       21.66326834535559
C           12.58145288635891       15.02652833111059       23.46271717540269
N           27.10098768503921       21.30814126783390       10.44679036995342
O           16.30348367765842       20.55882826677267       23.04374446218022
C           13.61118804337704       15.45746153091078       22.51054950920888
N           18.26689810116958       17.35920089718459       19.38157444884388
C           12.19206882276723       14.99711732792070       20.49865970079865
C           12.39690817957105       13.51181199605995       20.20636109581868
C           14.91121813848595       15.83609334974000       22.76748400196029
C           15.65774458828636       15.80948791203094       24.06565423209737
C           15.42506277417081       16.99997896168397       25.02264048315516
C           16.45800966977128       16.93782863983601       26.15134519470334
C           14.02518212126907       16.94663214392472       25.63391295758937
C           15.54642790896963       18.32836286581906       24.26964878471887
C           17.15864870132627       19.83524216656284       23.50967289855562
C           18.61703268164248       20.24080091474806       23.61190077090447
C           20.97999734393669       21.87987323921538       21.62519845984273
C           20.58547378741257       21.03943334728681       20.40724149191827
C           20.37464826876764       22.19052958563199       18.27315165566040
C           21.17116041620261       22.81374023148125       17.11935801882094
C           20.55570612785883       24.13997711291416       16.65960752644092
C           21.31053699312354       24.71033797540559       15.46187971125165
C           20.61303345907796       25.12045949416639       17.83216672737358
C           22.32879604312215       20.93887653323332       16.24433482097395
C           22.52467999665119       19.74950447377158       15.29157295159407
C           23.38706598071961       18.68350389217370       15.97140298494185
C           23.72731579765565       17.55835865738609       14.99329570820787
C           25.66174470837708       17.91725722196486       13.57021809405808
C           26.20154321946787       18.64802568473765       12.45230021272801
C           26.80523232874019       19.23690909936927       11.59235900615093
C           27.47420538805284       19.88714512702789       10.46963326597384
C           25.67396303869062       21.54985434097454       10.49722988046494
C           27.71839787223708       22.08336222690889        9.38977122576058
C           28.98698988320035       19.74505119112854       10.70903999522306
C           27.07322381867079       19.09589408723298        9.20370663758377
C           23.51733235169041       19.04325535580022       13.09733925141030
C           23.18104540558002       20.23750051857774       13.99452896896342
C           20.13329294309791       21.52827932386503       15.25598462519854
C           21.08265043397215       19.60459186503347       20.62980106611662
C           20.34403504444777       18.52610327417226       19.83845567523827
C           18.82654525602590       18.51692837363796       20.06056646334357
C           18.55417059655490       17.44495585038585       17.96166758140627
C           20.06599200489681       17.56404170418744       17.75373438580727
C           20.33745471648921       22.53522758099670       23.89773902897706
C           20.16420322501576       21.56804697679327       25.06638274942353
C           18.78235423853656       20.92322613704027       24.98686744241416
C           15.47569323325267       16.20951842925448       21.50641331214941
C           14.46912259298631       16.00252080054685       20.53341548801319
C           14.71390202146058       16.25941406114245       19.19238084841464
C           15.95468546002973       16.73554921316882       18.83266357142912
C           16.97774916491029       16.94623129471146       19.77597230307881
C           16.73086619658655       16.67468779070504       21.11514150639078
F           21.30569029530796       19.13738210426005       14.97523243484921
H           10.44161812026917       19.08090256303465       23.43894587982989
H            9.78339766231750       17.82479449965504       24.51091551839000
H           11.46069438077171       18.36180672162027       24.68530210476264
H           11.99487429334040       17.41402283362604       22.44128421877859
H            9.12247568803070       17.25292412112428       20.38883543143257
H            9.19559593689102       18.55219807452418       21.60088847745771
H           10.65163290431713       18.13712847571010       20.65253319186794
H            9.94222748935429       14.03498831601724       26.01519453284476
H           11.92452699300525       12.54476170095067       25.67529020280842
H           13.63638465613209       13.24179443297653       23.99123458556265
H           11.30883945690682       15.13127517405149       21.12613176859369
H           12.03802038786750       15.54500056487285       19.56660457870621
H           13.28095124048079       13.36403378708120       19.58877761568407
H           12.52559578238888       12.96081400438351       21.13583552639582
H           11.53031811726038       13.11670401204144       19.68471297599767
H           15.40894390792016       14.89752046627303       24.61156513474794
H           16.72153651494875       15.77546644186705       23.82432438538852
H           16.33982929356396       17.78743763262352       26.81885889676367
H           16.32040694464654       16.02545500604949       26.72487906354382
H           17.46758779828909       16.94998760152435       25.75128929298628
H           13.85412091585509       15.98498389502473       26.10958274527675
H           13.90972500376156       17.72529348032475       26.38384252176993
H           13.27077466817118       17.08906528426619       24.86802492742405
H           15.08567489144733       19.14188591592842       24.84161262763125
H           15.04750021776495       18.27809148908010       23.29619076909947
H           19.26367397118488       19.36058079883771       23.55115154429311
H           18.13062277920280       21.77705494247855       22.38644120157207
H           19.50021024191209       21.06721770546418       20.29809768623154
H           22.14517831375436       21.66103037304682       19.13445233738174
H           22.19228341245643       23.01115576029629       17.46068787072496
H           19.50145860509014       23.98352776968072       16.41471452328136
H           20.86046319352141       25.65092238894864       15.15657213725577
H           22.34720644044683       24.89554099461167       15.73285562598407
H           21.29664423096202       24.02919456825685       14.61650229307220
H           21.64189145689967       25.29053839487223       18.14232067799993
H           20.17400306503177       26.07138368150931       17.54420621364692
H           20.05879788401867       24.73029611489018       18.68368182210191
H           24.29610035006400       19.16103006518386       16.33581624630405
H           22.84007117215506       18.28981684779206       16.82888410755812
H           22.81539291399505       17.02958594837413       14.70010464958296
H           24.42508920585315       16.85598045748815       15.45087381345614
H           25.26815951371531       21.12049930145578       11.41134799072448
H           25.51017091078823       22.62669257376177       10.52133430205005
H           25.12771883686721       21.14073907522891        9.63369605613911
H           27.53960250078927       23.13719787779904        9.60198864726443
H           28.79136385000319       21.91973628000191        9.38184330634064
H           27.31172906401877       21.86342396967855        8.39174344130531
H           29.20650383922206       18.73547758718897       11.04862975453741
H           29.54476476976551       19.92715791823874        9.79511018884981
H           29.30453233054901       20.44680986099702       11.47512908845923
H           25.99113412095650       19.03554783258371        9.11039242152305
H           27.48294364675404       19.57579536722071        8.31885616253289
H           27.46762103842391       18.08591230333112        9.26923394446041
H           24.03297799623340       19.37690664416653       12.19721683360186
H           22.59162081362929       18.53231394157686       12.81312428343520
H           22.51633919487336       20.92056581177469       13.46667384489845
H           24.09189287886604       20.77359382085119       14.26470172313763
H           20.41911509990067       21.05525206971959       14.32300745500679
H           19.41299468908846       20.89280781224323       15.77609054063742
H           19.65455238683538       22.47492846794692       15.02973708188923
H           22.13954013021248       19.56533095734092       20.35994414497883
H           20.98649298557628       19.36103347194154       21.68686956257816
H           20.73105464816071       17.54483945982885       20.16655609123364
H           18.39341407285093       19.44297145927679       19.64848586142626
H           18.60816902282245       18.47590760779817       21.12503423911651
H           18.21702270946063       16.53284059131664       17.46916320906564
H           18.06462102244697       18.31936714206497       17.50082449129921
H           20.28464321586690       17.72805816694227       16.69877925866526
H           20.55019399881410       16.63667753298492       18.09375497444217
H           21.34536308248912       22.94770435478256       23.85622167866446
H           19.61465837634707       23.35498393680228       23.97201934994892
H           20.27071818462352       22.10963841240943       26.00463734001737
H           20.93463276299997       20.79792428455528       25.01818178603429
H           18.01130653208577       21.69144146377330       25.09086814242532
H           18.64907367432074       20.18552455759992       25.77665784974260
H           13.95654401409383       16.10496653033464       18.43906860358513
H           16.12915728934053       16.96038566877867       17.79350437394131
H           17.50651677561303       16.81520554635215       21.85234786611172
