151
 energy: -221.325812881555 gnorm: 0.006930723273 xtb: 6.7.1 (edcfbbe)
C           10.74779062035996       15.01423975969527       24.08155235115506
N           12.19604252824420       12.81713954926633       23.06391416306569
O           10.39918317288971       14.66105701166777       21.67435855773271
C           11.34741696157272       15.02836713260414       22.67593650407794
N           13.36568582862331       16.12839546992568       20.31115968769473
O           17.01501052763626       18.92468534273267       23.86090496269904
C            9.33722292616420       15.57510927042181       21.49347626958728
N           19.02030976741928       21.67302878520528       23.31497565161621
O           26.91188793397190       17.85671192738763       15.09223454340480
C           12.47195933072728       14.01474215482951       22.56599079351711
N           20.37243430827819       22.03467847164915       23.33829090480449
O           23.92188937390949       22.66963911202039       17.98712380560031
C           13.10291742706488       11.85999495700957       23.00539812182504
N           21.02445135652678       22.63449684620308       19.84474547401790
O           19.35590464568326       23.87568279655618       18.96410484658550
C           14.36305043571536       12.04737368056792       22.45689880581998
N           21.85768002924761       22.78850196756555       17.10304877452612
O           19.07135718129187       20.65240290126011       18.37166642109434
C           14.66097945406280       13.29245221339878       21.93534474693051
N           24.90305246031754       18.90821918984830       15.15154135908401
O           22.27350048640103       22.40895543612996       22.19133211020086
C           13.70775350154823       14.31184615489311       21.96992350474184
N           27.14298094808362       17.08707702897295       10.08339494652224
O           16.48854479312259       21.01549482288855       24.47789452010181
C           14.05496399013768       15.61089696203861       21.38527076000313
N           16.36358374004937       20.67793197649548       19.31422574506277
C           12.45077584996912       15.40730202951420       19.45996555431024
C           13.18092661494447       14.79043411865242       18.26611890731974
C           15.09052708598587       16.45212738072592       21.73746577996967
C           16.05498739761031       16.27358263320810       22.86715264186148
C           15.64237958250564       16.95205781026133       24.19335796158545
C           16.62767325040004       16.53825709494867       25.29108575152427
C           14.22932688671714       16.52852275752322       24.59489061349625
C           15.66076992069292       18.47801866791407       24.04564753900452
C           17.29727207086652       20.17772742242246       24.14286121785557
C           18.79195970682883       20.43959510171250       24.06452856986052
C           21.07227277103387       22.16192058486872       22.20199346843618
C           20.26696080408536       22.02232516188292       20.90854497196275
C           20.52310479120991       23.51124787617780       18.96792249123455
C           21.56952245230827       23.95869070169190       17.93237682190989
C           21.15186967239641       25.19347298577516       17.12431395874648
C           22.18765072452423       25.48935888686834       16.04133486806643
C           21.02860952595684       26.39014307195837       18.06914646772944
C           23.03960094065953       22.18608403523309       17.27357027184848
C           23.32196370095783       20.83244216283420       16.59017135597690
C           24.57684953012410       20.20830268208872       17.20402289263898
C           24.81902673770734       18.83386773644095       16.59385859856548
C           25.92744718121381       18.31932232231043       14.51041388506405
C           25.80465803198391       18.17871706658210       13.08250654378708
C           25.85780212994469       17.81045964595323       11.93598081357808
C           25.77550003535447       17.34272705115641       10.55436840331997
C           28.02339757357965       18.23387934384114       10.19200025173862
C           27.24300401406626       16.49195784446274        8.76625160406512
C           24.98236567400859       16.02414077833825       10.62172048615413
C           24.99194921175369       18.37647499467205        9.71794432579912
C           23.76613412073753       19.51459351895299       14.50010592433315
C           23.49860068260535       20.91387785608747       15.07133303624424
C           20.76539220505964       22.35305773713412       16.25799936325757
C           19.97807455251424       20.54232500658737       20.60756038240500
C           18.76451450366847       20.28663608403149       19.71158551100936
C           17.48726134583046       21.01789033911160       20.16255086167851
C           16.69954372989613       21.04059400441328       17.94671884634026
C           17.99273257829315       20.33888809967691       17.51165500736674
C           20.98310470851065       22.19107644356795       24.64942683896269
C           20.82554244123394       20.89556077617750       25.44115015546988
C           19.34615217823888       20.51790331237717       25.50032653892903
C           15.06195119761187       17.53975630812337       20.81108731091576
C           13.97676962054915       17.29592962455247       19.93985941776572
C           13.66976414435366       18.18968350601509       18.92108076077294
C           14.47596501888246       19.28873284428181       18.75534195739817
C           15.61718962873468       19.52038101763990       19.55663765184559
C           15.89008924484921       18.64634869066425       20.60063386831522
F           22.25029877655325       19.96826939960372       16.88062573823641
H            9.98748067421895       15.78398274300446       24.17878762753448
H           10.30620979922365       14.03887817178024       24.26553126687889
H           11.52681212467802       15.19697267805907       24.81352833414202
H           11.73216555143673       16.03570813624770       22.44297726843091
H            9.71436783695940       16.60204827098110       21.40350778787126
H            8.84981657061933       15.27753566518610       20.56542888800618
H            8.61406688624921       15.52031025878034       22.31384483098964
H           12.79910870425087       10.90748908716207       23.41932048652328
H           15.08027786967391       11.24314631788999       22.43000566200296
H           15.62278859462062       13.48226271653232       21.47923413041577
H           11.96039363170261       14.62539054590532       20.04295001573024
H           11.68395219860567       16.10474435137203       19.11081820965621
H           13.95184554257203       14.10421484918787       18.61262730239350
H           12.47833294246449       14.24112048329067       17.64669767379384
H           13.65261577739118       15.56677561024618       17.66791765980287
H           16.17617878220637       15.20867087456898       23.07142852720941
H           17.02441494775318       16.67699406651221       22.56734500661579
H           16.52608288790569       15.47849699190382       25.50309312588663
H           17.65035583569565       16.73645746871834       24.98273584665301
H           16.42849360369921       17.09179809750536       26.20598220171529
H           13.96622634896899       16.94350318304282       25.56400689611350
H           13.50564978437125       16.87157453132448       23.86143726288492
H           14.17216531884380       15.44463892331060       24.65393674721748
H           15.26151623394373       18.96479831148304       24.94139456443097
H           15.06703323567868       18.79801181331867       23.18466238814294
H           19.27070121406375       19.61216436956014       23.53178462834770
H           18.45135423343805       22.41604400947804       23.72650339318085
H           19.33698106295306       22.58151626718391       21.02117423390906
H           22.01526563209425       22.43257003174559       19.84529264790394
H           22.49708728463310       24.19421413286853       18.46684499597143
H           20.17350906444948       25.01527668168801       16.67037565504901
H           21.93620985413687       26.41609561245178       15.53259004790589
H           23.17375198736588       25.59620402131540       16.48955410933755
H           22.23560407757918       24.69524950926383       15.30269607149542
H           20.26172844299268       26.20391664622541       18.81994088846952
H           21.97830100787162       26.57607801975800       18.57519172112415
H           20.75217838333024       27.27775442486802       17.50413388836817
H           25.41831026162167       20.87497596483761       17.02036155620182
H           24.45009981963215       20.11668024886867       18.28316911135829
H           23.98914180572889       18.16919477222256       16.86234577731793
H           25.75238435271917       18.40643267409625       16.96223170186760
H           27.94289116230882       18.66328665088826       11.18936387278947
H           29.04831996282219       17.89415779535282       10.04474379278810
H           27.81111764614239       19.01473701772461        9.44495928505827
H           28.28091978095134       16.19781101795617        8.61454142594426
H           26.62850970450083       15.59884964330739        8.71139919295910
H           26.96276929105573       17.18094855318269        7.95575073764557
H           24.09517747396603       16.16706653198402       11.23191099033140
H           24.67023654616901       15.70800707940884        9.63125627958763
H           25.59733060932025       15.25142796618295       11.07432635251074
H           25.47928793038018       19.34787103914555        9.75236586025542
H           24.93093224108236       18.04385530477314        8.68504608640715
H           23.98485050192370       18.47832278207178       10.11159798085214
H           23.96562041559257       19.57715842328115       13.42980743193865
H           22.87992163560530       18.88974882602201       14.66384076161713
H           22.61041344741749       21.32579088008706       14.59640716006172
H           24.34361985253588       21.57419960918903       14.87334178962100
H           19.83238249001178       22.58182074035794       16.76804458262287
H           20.78694179835978       22.88369123979981       15.30519374259814
H           20.79227408408826       21.28393921512982       16.08842908737251
H           20.85598082838644       20.11219478308281       20.12066511941379
H           19.80691285866011       20.01534393295781       21.54246058085352
H           18.56526268656158       19.19944843522174       19.72157540441161
H           17.64296174732929       22.09394254482309       20.03825339177271
H           17.26486337910634       20.81510055369114       21.20920724407381
H           15.89958967294381       20.77700830693451       17.26060780587324
H           16.85596072806964       22.12390683810696       17.92005652709327
H           18.29430378166293       20.66271234993580       16.51580914984349
H           17.83168651844320       19.24914116076042       17.50964816739678
H           22.03136640941334       22.44746022048831       24.49427286682559
H           20.47930843647719       23.01522126051480       25.16594977882452
H           21.22226134619528       21.02955001573234       26.44595331445914
H           21.38947220539901       20.10251685398207       24.94752671821155
H           18.78472713266754       21.27705573701448       26.05065881615231
H           19.21314368845494       19.55894188354960       25.99913413150877
H           12.81647720896036       18.03812201598391       18.27800966293553
H           14.21431900634155       20.00519902387703       17.99433121108748
H           16.74026634580878       18.79089979350467       21.24840303728259
