151
 energy: -221.321701403686 gnorm: 0.009005401373 xtb: 6.7.1 (edcfbbe)
C           10.84114270117011       15.27066217467359       23.08075690021452
N           12.38222216279601       12.91148942466427       22.73260596925899
O           10.90212078983069       14.48002953132420       20.75982549097475
C           11.67924205866687       15.02445785146128       21.82640327015626
N           14.13800761142816       15.80123986823890       19.84004967672672
O           16.95863087550162       19.08847339993784       23.82109881055397
C           10.07128380159700       15.41508519546994       20.10351925014774
N           18.98334766682749       21.84739991115639       23.50844771178805
O           26.41635790023187       17.84962006389287       14.97377641166097
C           12.77703566700943       14.01751400464893       22.11756073469653
N           20.32311907844658       22.22621034116490       23.65818340689321
O           23.97003448860433       22.98242754769405       18.15186654166533
C           13.26903995807828       11.98194625727117       23.03624542282518
N           21.15656636775966       22.97552251915869       20.23412875506923
O           19.40293918963904       23.85069076061337       19.11369785919331
C           14.61971837945296       12.10234294153689       22.74845145548005
N           21.90951179681920       23.26225365487605       17.30276945060656
O           19.74171174780209       20.67124708345927       18.58614169293897
C           15.04226420900673       13.24870915164652       22.10113421869935
N           24.60574168450845       19.20782203274992       15.14853804560908
O           22.26966975818012       22.77220808205916       22.66217544651488
C           14.11841000360933       14.23931035371458       21.76651613307168
N           25.70226895827376       16.05412334320178       10.43852805683059
O           16.35216343517401       21.18033379030346       24.34363273363986
C           14.58981569069410       15.45310177952564       21.09313980991297
N           16.92755910302306       20.53096771070113       19.08735653937352
C           13.46526744549431       14.91728499443692       18.92062414079270
C           14.46561683828014       14.03401022182260       18.17445296413746
C           15.48815476345356       16.39134881669728       21.55652108140302
C           16.21764721543147       16.37154884680489       22.86249842678897
C           15.53411706123948       17.13153944937509       24.02221286483186
C           16.26096629879004       16.79373040052165       25.32689489737231
C           14.06491988201488       16.73065914771150       24.13630333123263
C           15.59280467996071       18.64434628652507       23.78129990980704
C           17.19907409656448       20.34307162249800       24.13272416976402
C           18.69148803578307       20.61405667873118       24.23466778815378
C           21.09066734808357       22.44471184569406       22.58138219175187
C           20.39395544317880       22.26482820312966       21.23262908334530
C           20.61222134130901       23.71192170144397       19.26139578671020
C           21.64420425544608       24.31096575983819       18.29129203938440
C           21.17781168237691       25.64148944727966       17.68663233000601
C           22.19577155195574       26.15869713503901       16.67358117653442
C           20.99781425372231       26.65570294983011       18.81597729629047
C           23.06770341997998       22.60058880131816       17.40615318312921
C           23.26944813974202       21.27003177358596       16.64691443460406
C           24.51425096634580       20.57179300404053       17.19755398998144
C           24.64091158637522       19.17989237240588       16.59575388847709
C           25.43890992714613       18.40346167513459       14.46167683162711
C           25.09154975107419       18.12128414782575       13.09207384929951
C           24.88015568091432       17.56091464466737       12.04565113246335
C           24.52995729886528       16.85562071994692       10.81433010969057
C           26.89257945558138       16.84124918228766       10.18921703862649
C           25.49294058613195       15.08879712048106        9.38071252170994
C           23.35311002205330       15.93666097939987       11.18958341674265
C           24.07191972995523       17.86713022069683        9.74481835562506
C           23.49559781718498       19.91854878687689       14.55753872813340
C           23.39847728912017       21.34362688249573       15.12353917016988
C           20.81986053991966       22.97270671593106       16.39537170055720
C           20.30005045115480       20.75879219450828       20.92342937820290
C           19.25482602404094       20.35644875626774       19.88261765630473
C           17.86780803696222       20.99509822999234       20.09044045401077
C           17.45985795846476       20.88294512497981       17.78096845506139
C           18.83402537937735       20.23093381829808       17.59494516131318
C           20.82731742207718       22.36658647676122       25.01558965589367
C           20.57376520390129       21.07680563230042       25.79607086749395
C           19.09342126710042       20.71080119070122       25.71685792320500
C           15.60688554245358       17.37679775043962       20.52922082629423
C           14.75914352110361       16.96578687303720       19.47622778412951
C           14.63404964623512       17.73691666411690       18.32796990582920
C           15.36236034709411       18.89767182572428       18.24120981461985
C           16.26391428119575       19.31124372868910       19.24906858761618
C           16.37561091904352       18.53733653060503       20.39757786779532
F           22.16176428760483       20.46016340880793       16.95557170670248
H           10.06275120012068       16.00240528325496       22.88340666928417
H           10.38985437477585       14.33257436976996       23.39147511467474
H           11.47715479060525       15.64278859652518       23.87778341697327
H           12.12988278924547       15.97027703042570       21.48570410890362
H            9.29019694533134       15.80346912760847       20.76495507479106
H           10.66395750535833       16.25413704716044       19.71159216510618
H            9.61112261017221       14.87312537367183       19.28108885316505
H           12.87388709764929       11.10819527587765       23.53675373808838
H           15.31398124408263       11.32291158171470       23.01684470932931
H           16.08030188856059       13.38339071567257       21.83453668168823
H           12.75870271665713       14.29282059170784       19.47094272370146
H           12.90535972620610       15.52894574409042       18.20911755717848
H           14.99471912460889       13.38943499710164       18.87586303305589
H           13.94127332487913       13.41107654237672       17.45402505174021
H           15.19480869414738       14.64940359201836       17.64746253476779
H           16.34024295554239       15.33589707822028       23.18242965200785
H           17.20944667528985       16.80250411138128       22.71510998633573
H           16.17088500233861       15.73237750490661       25.53890803535309
H           17.31482666885675       17.04459589377345       25.25220118624575
H           15.82889132741696       17.34790485502275       26.15661560691183
H           13.61972832537432       17.15779240312434       25.02965089664669
H           13.50803915530496       17.07865954873140       23.27203263892337
H           13.98047551138305       15.65002305223208       24.18872892610183
H           15.03336381388700       19.18852834222533       24.54804443771220
H           15.17682513232663       18.89703480035037       22.80202290776611
H           19.23069343246826       19.78944171168300       23.75916184634540
H           18.36718462631877       22.58334849374491       23.85936320931555
H           19.39881637680811       22.70899368532901       21.28212899898121
H           22.16206703960258       22.92962230648817       20.34758533972693
H           22.58561655744468       24.47763958276372       18.82393211964315
H           20.20858003612880       25.49224854086845       17.20300593658515
H           22.31859052370854       25.46997771925267       15.84236317001255
H           21.87163555094049       27.11896918731723       16.28110523222420
H           23.16478736135393       26.28848643380367       17.15100088693965
H           20.25175676204087       26.30747876894725       19.52656236504887
H           21.93655902398692       26.80881713281627       19.34452692633180
H           20.66819843091665       27.60905809689526       18.41273556006279
H           25.38195801225795       21.18578488632694       16.96116221331485
H           24.44395725722940       20.49363640067278       18.28204698330081
H           23.80912195873729       18.55874698393668       16.95324573191185
H           25.58217363856563       18.71635331425417       16.89546809054385
H           27.01943008066344       17.57292650186199       10.98526784099272
H           27.75537006261385       16.17407222320742       10.19788906064579
H           26.87235214477757       17.36240339923890        9.21972937983212
H           26.39815785600480       14.48855062401161        9.29809906849972
H           24.67177836117742       14.42513584030199        9.63351132271068
H           25.29943323843340       15.54828077232298        8.39995043456609
H           22.61390791596402       16.50426401364060       11.74508448231347
H           22.87929280919457       15.53273930777229       10.30020099283680
H           23.70984843388291       15.12434596783919       11.81525803461314
H           24.85587219396850       18.59014727329444        9.53391535624707
H           23.81749704579013       17.33958010517165        8.82807120916392
H           23.19354386175480       18.39975771542790       10.09695005475530
H           23.63833738948928       19.95324813694538       13.47657182202323
H           22.56062674043056       19.38749178748257       14.77593262859913
H           22.54266885007767       21.84096216580829       14.67255862779610
H           24.29836500225048       21.91073390419965       14.88798909113286
H           19.88006485379265       23.12446781307089       16.92225251580183
H           20.85903342784465       23.64380577386778       15.53701851333151
H           20.84967451908581       21.94443909933169       16.06097572123800
H           21.27517548951953       20.42402695042263       20.56491858698292
H           20.06822001588357       20.22936005685343       21.84385318390542
H           19.13725379909069       19.25778660032720       19.93636947705404
H           17.95677274515027       22.07578046225829       19.94557279884851
H           17.49746237739615       20.80577234246612       21.09621259971962
H           16.79496898941637       20.57463928511031       16.97948857247368
H           17.57210669309685       21.97124280546289       17.75360289616625
H           19.27581906906799       20.49378861670394       16.63553311680530
H           18.72658937361206       19.13567088947871       17.65698537259360
H           21.89123613476673       22.59162205143098       24.94228095131872
H           20.31167476085337       23.20634293932262       25.49468071566963
H           20.87406462286272       21.21820322691524       26.83307718376637
H           21.17371882191797       20.27188380567141       25.36754102146031
H           18.48685083103721       21.48406465333908       26.19429903156943
H           18.90075441313341       19.76213354122413       26.21619944556394
H           13.97409561907557       17.45275044475211       17.52361573665205
H           15.22160816594333       19.52047098584812       17.37456118210509
H           17.04953032703071       18.80661869869764       21.19513398526932
