151
 energy: -221.325804295437 gnorm: 0.009701216560 xtb: 6.7.1 (edcfbbe)
C           10.85938043239751       15.11964968503652       24.35907380233489
N           12.18455003279010       12.92016890378552       23.16707763510743
O           10.26053414182327       14.69866417324473       21.98547692867850
C           11.28299296722135       15.12281725939656       22.89114355083579
N           13.27232259464223       16.23216638266759       20.30913472437132
O           16.92701023702904       19.17573364182430       23.77016330966594
C            8.96444463306701       15.22325352724632       22.20190748578263
N           19.00967413569651       21.77954735066051       23.33763881283868
O           26.92750310408806       17.41678562187284       15.27495917729259
C           12.41682915138684       14.13490732040193       22.68339578936452
N           20.36818332333010       22.11536732154292       23.34344631956912
O           23.60828348129543       21.91631765682888       18.27486811853956
C           13.09437521607502       11.97633658334349       23.02234814807808
N           21.03512033959025       22.51550775125965       19.82487347577651
O           19.33643810080299       23.43558400558388       18.65075078194125
C           14.31537269371118       12.19081369438662       22.39999413630973
N           21.85137597851454       22.38141676657791       16.95625456398091
O           19.32785591882928       20.30212927530120       18.38990217791510
C           14.56852487678598       13.45373071194371       21.89892492814502
N           24.92883816509068       18.48694792824847       15.17565156174495
O           22.26122434294545       22.45063607871736       22.17643846630790
C           13.60677479342196       14.45935169393295       22.02040071941384
N           27.35914535690188       18.02640676000550        9.91476494592676
O           16.47114250259827       21.19498488934090       24.63796417525383
C           13.92735990504979       15.76077911007761       21.42368978042711
N           16.53539734416248       20.51906330171171       19.02279717841300
C           12.25839141510039       15.53015051231206       19.56262422013463
C           12.87993804874843       14.54294343009802       18.57319424147549
C           14.98884277274188       16.58502177977910       21.73579078597882
C           15.93749734256791       16.44711112435401       22.88354191974451
C           15.53064733724246       17.22634742770438       24.15573697500572
C           16.51012992193716       16.88979277037366       25.28349373778262
C           14.11444348691225       16.84241501527533       24.57960740309302
C           15.56245955928720       18.73888380965621       23.89447897323553
C           17.24976023125300       20.37002779435388       24.21004719268028
C           18.75463421406317       20.59454562374055       24.15955334720838
C           21.06550270804586       22.19049300036474       22.19997965584103
C           20.26252547875385       21.97159749600242       20.91469565722462
C           20.52703949888465       23.19038777915807       18.79171173485035
C           21.59932946617026       23.58139406496957       17.76182681975354
C           21.22236470673054       24.81399603615756       16.93273827109395
C           22.33189791880223       25.14619468628510       15.93736893571494
C           20.99903938614109       25.99868763742104       17.87315615880474
C           22.86973792768048       21.60324083903539       17.33959296703506
C           23.17875339052714       20.29850543987484       16.57806755513977
C           24.28426753488143       19.53055813022657       17.30517813120942
C           24.61254167545408       18.23740169100810       16.56525372042244
C           26.04225700203763       17.97000702209795       14.61973730952717
C           26.09836341752003       18.04792952867870       13.18273306057484
C           26.17645243030988       17.93196612790456       11.98619834609215
C           26.05776997248179       17.76784739402016       10.53870324114495
C           27.89175889328003       19.34382381138380       10.19981061980155
C           27.42173761181632       17.74199891488742        8.49492905665090
C           25.64611735089161       16.29936463123147       10.32582421818662
C           24.91659301166228       18.69620514317907       10.06391230797801
C           23.90661078441682       19.19913035380386       14.44530819324212
C           23.60131406481509       20.53882401071937       15.12647185162876
C           20.82156413476733       22.05990015428785       15.99027985136400
C           19.98053026564338       20.47208396856211       20.72210797836977
C           18.87174005317200       20.12895909185144       19.72601181264694
C           17.57574365912017       20.93331844853109       19.94051302836237
C           17.02787007886712       20.66686951572909       17.66391354511297
C           18.32870566587466       19.87209395208301       17.48256339246347
C           20.98833156459467       22.32949391373399       24.64285433682006
C           20.78548624892047       21.09553615204129       25.51895620920254
C           19.29747758132388       20.75590487617230       25.58939429504450
C           15.01485421937056       17.60290090608095       20.73740002077638
C           13.93913475432263       17.33980594475429       19.85984292905691
C           13.72226305771487       18.14741299055948       18.74842130755536
C           14.59931421274433       19.17742305387590       18.51101301870395
C           15.71718151172094       19.42836029211988       19.33881932507112
C           15.90493371223537       18.64602419804338       20.46822317072488
F           22.03054575877981       19.48672931231993       16.58695571076909
H           10.08203909906070       15.85554519641943       24.54297256399752
H           10.50763940956879       14.12930935879585       24.62903349381611
H           11.71863892711472       15.36713021888910       24.97302080358777
H           11.60922398344740       16.13671169670084       22.60394141335888
H            8.36672516941198       14.87261244764030       21.36381839457523
H            8.53379733434055       14.84427945327547       23.13238496749992
H            8.97133007217718       16.32086091133085       22.21358512811724
H           12.82745568088542       11.00782938838835       23.42497453375815
H           15.03316606118889       11.39339273468838       22.29900453273404
H           15.49581302331925       13.67369533753609       21.38897494736620
H           11.60114925016924       14.99830693328621       20.25460362085089
H           11.66395362102027       16.27283229802868       19.02326462086215
H           13.41106549812675       13.75862611349578       19.10641062300785
H           12.10192644074346       14.08759258923221       17.96862257056582
H           13.58124224575431       15.05745550495720       17.92002883346935
H           16.02199416264594       15.39325336858796       23.15625447926142
H           16.92238212056465       16.80065049763942       22.57032066342333
H           16.43354087480380       15.84025347199785       25.54884699566783
H           17.53017574467319       17.09573739916814       24.97209482093040
H           16.28789688354160       17.48675005647428       26.16529616092314
H           13.86733044984265       17.28702594524828       25.54083372890064
H           13.38984041102512       17.18054066343284       23.84424059440300
H           14.04199126110554       15.76064693968669       24.66590551042724
H           15.10289043292587       19.29194108504019       24.71885005104287
H           15.03830004593551       18.98506941384004       22.96828128797480
H           19.22479705548080       19.73103552039417       23.67924538623575
H           18.45854599941996       22.55462581096269       23.70983641347864
H           19.32591106981616       22.52713211424546       20.98902749028994
H           22.03531387507972       22.36183130901179       19.88971128616603
H           22.53053879752185       23.79234690015813       18.29769275013457
H           20.28602024061758       24.61872209461664       16.40499584282156
H           22.53665040708397       24.31412926728140       15.27059345348424
H           22.04647411049215       26.00686539574325       15.34021713179596
H           23.24930366355806       25.38425893306983       16.47003795494868
H           20.15904280665539       25.80853400455405       18.53595292750438
H           21.88515490588712       26.17927197161782       18.47792969898519
H           20.78500890505283       26.89341028555620       17.29478396503582
H           25.15720831264014       20.17710403492072       17.37749455800104
H           23.95491578489571       19.29742070440659       18.31861958275062
H           23.74394918889603       17.56833339469028       16.61036725024085
H           25.47027726712373       17.74126680687036       17.02243542771696
H           27.79820980197405       19.54966564275869       11.26792042258475
H           28.95408670404493       19.34766107851060        9.93762377166273
H           27.39074141019812       20.14552976748747        9.63084545220544
H           28.44501284566581       17.90595529978708        8.16599320450123
H           27.17002405368031       16.70300393336979        8.30812321412412
H           26.76718592526314       18.38559711963858        7.89206231332642
H           24.86770546942278       16.03337872291046       11.03633215593228
H           25.26088261490036       16.14983490651963        9.32163219318032
H           26.50209210472455       15.65168960947699       10.49066584523999
H           25.15840029564195       19.73765027565075       10.26314128663358
H           24.74902102832604       18.56611606758984        8.99775654083841
H           24.00209148530255       18.44376970670602       10.59374893029487
H           24.25236994078762       19.37006876128510       13.42481397942823
H           22.99352226566451       18.59188677825997       14.42012012479469
H           22.81606248032662       21.04733742494085       14.57000952472227
H           24.49225781771973       21.16681271707532       15.13846672450537
H           19.85329924404833       22.26642012772005       16.44514963710093
H           20.93335897624834       22.67623684388728       15.09830174941403
H           20.84612969210341       21.01288702685691       15.71918653359096
H           20.90260938876065       19.98481244919300       20.39519052058742
H           19.68289726934073       20.05321162841722       21.68051420954196
H           18.63962916194200       19.05523765659548       19.85127855820640
H           17.77866444955410       21.98594797985310       19.71436320137121
H           17.23540549133029       20.84941244715837       20.97312529867321
H           16.29114265000227       20.32577405658017       16.94195116101902
H           17.23607572948123       21.72912412400660       17.50117917755865
H           18.74083223059465       20.00810848660217       16.48308347527845
H           18.12579149077051       18.80101481091585       17.64835006811282
H           22.04479340440281       22.53078681416389       24.46587021222822
H           20.52422639775498       23.20568066372944       25.10728622252259
H           21.17553298022925       21.29106144823527       26.51643173673107
H           21.33482556042407       20.25519120043146       25.09103495104463
H           18.74478689654408       21.55753107441115       26.08392255413039
H           19.14080252310815       19.83401348671543       26.14864289192395
H           12.89118769891245       17.97840472550766       18.08123845385389
H           14.42381435703613       19.82667636045614       17.66692030630876
H           16.73899276042519       18.80364701291870       21.13178670235141
