151
 energy: -221.318133399020 gnorm: 0.009337008913 xtb: 6.7.1 (edcfbbe)
C           10.20799887338775       16.27390532293366       21.02100748987558
N           10.82219785818494       14.07195673022537       22.65037189822828
O           11.31010518618997       14.47243316228533       19.76289715978092
C           11.47278023958211       15.44622457934388       20.79134569746878
N           14.78741772210432       14.85997773996975       20.69654996121535
O           15.94312947428999       19.90370949982542       23.19072566440585
C           11.12349098621293       15.00267372755966       18.46796335373508
N           18.39103684882868       22.29678519562839       22.20279900142647
O           25.15026493631340       16.71583695265917       13.64076699895258
C           11.83577418860280       14.68047569340337       22.05072650429635
N           19.33728616212009       23.12912165002490       22.81321983197920
O           24.91706288805359       21.38231136355939       17.67063379504748
C           11.03751977523719       13.38817781020502       23.75825335543202
N           22.11254339215039       22.07437526478018       20.80028013767427
O           21.40758250703134       24.10632749251993       20.13626131621233
C           12.28697975571477       13.27399886839430       24.34737381987792
N           22.81603036231463       22.12506242754529       17.94873688271842
O           21.93139468139884       19.26585038937230       20.59577762912488
C           13.34931813651549       13.90224922824973       23.72819074170819
N           23.64447479900471       18.23693800136144       14.38491251393835
O           21.50924834965822       23.66097398364751       23.11477849330576
C           13.14515386877015       14.62194352563315       22.54885193092791
N           24.81941904547379       19.03764771542174        8.80571305231580
O           16.06049504480064       21.16183861010856       21.34322613377373
C           14.31235626650283       15.25820997060869       21.92636178644943
N           19.53661234041392       17.71601237764386       20.61244280767518
C           14.34122158742327       13.71733105031113       19.93991637587879
C           15.07900631006487       12.44646761260765       20.35694056786498
C           15.14451599754417       16.21405654387518       22.47078655877811
C           14.99102896486801       16.95381042024907       23.76158289336330
C           14.17408970767020       18.26376906288867       23.66767491613579
C           14.11959275075277       18.91555728848773       25.05058561914360
C           12.75340417517122       17.95727142306836       23.19130081277988
C           14.78716721370574       19.23970935021316       22.65372353672706
C           16.45133556191536       20.87360236539754       22.45253174298893
C           17.53826852324036       21.64093427261160       23.18661224471694
C           20.65259514652377       22.97325204270406       22.57209341171714
C           20.97081577749483       21.79984859122266       21.64637498623540
C           22.18624316632822       23.16727988602824       20.03186256797175
C           23.29676484694908       23.05316223903976       18.97748227084039
C           23.82537127686658       24.37783962589495       18.39004545881515
C           24.41285169155470       25.22031698310391       19.52210555772070
C           22.78260993736523       25.17165162106038       17.60888953304689
C           23.71547783883144       21.28377770170173       17.42294711128931
C           23.25342247216050       20.13829958455886       16.50420347350142
C           24.22410766266820       18.96216341919258       16.64637540902330
C           23.77092652920656       17.80667173128947       15.75934332559954
C           24.34638157586402       17.62359286582997       13.41691187962331
C           24.07868946909408       18.03272152494529       12.06187150191484
C           23.99721722175570       18.13437368818991       10.86364273863511
C           23.76092774771878       18.22593905077589        9.42531979560711
C           25.12431774617304       20.26696794090710        9.50845133262539
C           24.62559186827661       19.30361122981015        7.39478919656897
C           23.86473163407700       16.77468287616010        8.91900692612314
C           22.33273976978225       18.76373944454733        9.20423674245859
C           22.74524851804035       19.34679955256484       14.17876454445098
C           23.17053354754946       20.54879996141998       15.02997645901618
C           21.40136418870111       22.14758338810303       17.63116376907534
C           21.24045924493783       20.56071649921738       22.50285397842987
C           21.07865778215039       19.24993616927383       21.73128204471492
C           19.62713877233691       18.98634634563777       21.31103989134534
C           20.43737702200730       17.68912128256368       19.47557432359487
C           21.85865318012144       18.02524591944479       19.93136178483993
C           18.82094729403303       24.16514713754012       23.69070960450324
C           17.94901386118198       23.52734865538384       24.77175886641258
C           16.86648100490684       22.66107523712979       24.12675373313817
C           16.21424842557593       16.39231411143496       21.54255633164600
C           15.95526145971913       15.53145453448889       20.45251312214604
C           16.82536462231641       15.49541138762819       19.37332655329096
C           17.96138002691934       16.27368146423607       19.41656090255320
C           18.29224482645466       17.07672337235421       20.52930344230228
C           17.38690763637990       17.14457661084725       21.58097766504012
F           21.99379183251003       19.68092138387403       16.91251458046779
H           10.33248287667239       16.88585460934629       21.90878383328078
H           10.01204607449701       16.92124459128972       20.17139753089712
H            9.37028857918513       15.59971308183564       21.17158779260173
H           12.30952083475172       16.10985984383545       20.51231559990365
H           10.12478801451116       15.42807144080223       18.34507700624389
H           11.87723011533485       15.76763173043355       18.24611571504087
H           11.24343159704408       14.16568935727945       17.78357164339116
H           10.16547188794540       12.91898572491564       24.19293869026974
H           12.41916710008254       12.71054114037390       25.25631214549492
H           14.34893444045682       13.82984175504478       24.13358981184331
H           13.26916435953762       13.58500880046511       20.08774473587344
H           14.52182719499644       13.92543104183151       18.88141615874949
H           14.85876895433154       12.20921339580493       21.39539855098791
H           14.75945806830410       11.61611622256291       19.73442171742370
H           16.15333098816125       12.57778267423164       20.24953273649169
H           14.49481418247505       16.31392203167809       24.49311750691497
H           15.98592982162141       17.19673634484618       24.13838066539754
H           13.60236835958206       18.26159539246715       25.74805826158454
H           15.12231998508949       19.10056698482283       25.42375684999174
H           13.58464750807437       19.86113057156349       25.00287991868551
H           12.13287136209407       18.84868603045576       23.23824296256155
H           12.77161737992619       17.60028174477952       22.16680374302370
H           12.30315135868539       17.18906314549132       23.81521330272859
H           14.05933620554881       20.01386674158027       22.38650222970619
H           15.07547318592577       18.71942613729036       21.73518422166432
H           18.14569388577260       20.94703391524143       23.77262431495981
H           17.79940012090418       22.83642387975106       21.56668324528604
H           20.08796349203666       21.64589724975474       21.01689894111438
H           22.71135168562854       21.27697758561657       20.62625632462996
H           24.15959339139119       22.56345223177656       19.44746628013859
H           24.63615321147294       24.09653599885307       17.70549724072570
H           25.22669170543147       24.69188312163374       20.01324657521302
H           24.79633328452585       26.16145609871630       19.13251167850490
H           23.64226279483792       25.43883364281510       20.26231217992373
H           22.42824397929050       24.61135887436255       16.74772025442591
H           21.94301262997703       25.42300494189296       18.25322989641703
H           23.22979625446092       26.09572498119908       17.24995735267472
H           25.22056173838882       19.30336157624003       16.36783903100394
H           24.25941470155617       18.64082956164382       17.68791616062812
H           22.79751773493811       17.44063956498269       16.10440214467198
H           24.49472625537345       16.99057209323063       15.78990685984011
H           25.32768814981893       20.05143187855890       10.55348468710234
H           26.01771470890247       20.69867172426171        9.06280828037163
H           24.31859254532311       21.01504288653533        9.44881107471480
H           25.56023491175293       19.70083978659687        6.99997626834617
H           24.39680945371074       18.38550220563819        6.86324689586194
H           23.83182385504118       20.03967808445343        7.19992784999888
H           23.64347411976979       16.70698605277258        7.85603917317993
H           24.87356619700151       16.40313053832181        9.09709896277342
H           23.16113969199007       16.14882871609016        9.46384536538059
H           22.26930688616921       19.80920455401574        9.49793218502771
H           22.05355809840254       18.66898733630625        8.15803736194840
H           21.63019430523979       18.19187889127398        9.80504287319828
H           22.74288655412701       19.61243257423455       13.12137481735382
H           21.73568292724408       19.04301803945127       14.47595928965284
H           22.45080718631690       21.35557203333018       14.89306459991929
H           24.15523088190029       20.90726945729614       14.72872370417614
H           20.99628792684976       23.11460095065324       17.91410325342858
H           21.24156302713123       22.00227007907473       16.56641677492548
H           20.86394725250128       21.37089059577462       18.17697006025817
H           22.25555567016656       20.63190399597664       22.89540353218702
H           20.55203635119941       20.54684263109824       23.34649136863658
H           21.39155558614108       18.41658935388192       22.38395642321922
H           19.26270034611058       19.80496852550074       20.66939370457818
H           19.01856023951335       18.96265625627579       22.21123524199579
H           20.46727532561858       16.68738009617710       19.05122193363372
H           20.13102575145707       18.40727031356558       18.69732314530689
H           22.51463290680038       18.10197719291567       19.06521022483428
H           22.22390743889997       17.23370239506237       20.60010585864822
H           19.67960805207498       24.68234335601709       24.11778710278837
H           18.23557990730211       24.87341280926754       23.09409968917157
H           17.49268242660336       24.30994701595923       25.37548582421561
H           18.57400472132769       22.91019951598868       25.41828792096063
H           16.18924814955209       23.28567544131290       23.53941482626092
H           16.28717591692774       22.13754120510825       24.88517045727206
H           16.63243019241249       14.87920503917145       18.50840603297641
H           18.60611048278411       16.25224701797961       18.55531167128670
H           17.57421444927887       17.74918286865617       22.45339571120430
