151
 energy: -221.322367871675 gnorm: 0.007777166927 xtb: 6.7.1 (edcfbbe)
C            9.73046927220518       17.21953734162490       22.60148945077662
N           10.22544624826902       14.81303625772697       24.04208605238141
O            9.86033572904105       15.21127947316096       21.19153421561817
C           10.59745942640359       16.09003423614394       22.04357237868461
N           13.45949712942861       14.92620882486753       20.99614204122934
O           16.64748893454354       19.25184738771611       23.26311710035676
C            9.54824093331176       15.74533536362494       19.92254900844398
N           19.16149945927283       21.43366419136796       22.84832927852361
O           27.46439607969035       18.50881978552307       14.68710584261506
C           11.13257680273722       15.22642087383397       23.17012097175083
N           20.55302560317851       21.57528730698019       22.86104758755956
O           24.10605582475396       22.72551306230193       17.68497419207402
C           10.59550183314434       14.05045005712733       25.05501415056101
N           20.89322600810522       21.70632294159428       19.34916614996159
O           20.83233415731404       23.71794754007616       20.34340772857566
C           11.91082156151406       13.67047217006190       25.27125517833235
N           21.93716681127886       22.55863044384283       17.10158482940291
O           19.83486974225239       19.48712615672169       18.15174580428983
C           12.86581650080488       14.09587372372703       24.36544573683322
N           25.27975719020250       19.09012694065099       14.86563235140309
O           22.50342378459721       21.57782097689041       21.73653142949583
C           12.48950621427358       14.88199272631616       23.27738314767588
N           26.49509872249028       18.14849291598068        9.46175833798042
O           16.60513949712981       21.33076919798111       24.10703895085207
C           13.50513759267219       15.32269172524671       22.31505620593675
N           17.84711904099077       17.66681070358103       19.02215733158384
C           12.67923316677076       13.82486703569476       20.48634895695368
C           13.24832690649707       12.48072856969421       20.94111943905375
C           14.58005264942007       16.15932503032780       22.52685359778162
C           15.05445462761692       16.72231058756216       23.83125969284268
C           14.61672290754771       18.16312213419016       24.17178501517848
C           15.08655215381279       18.49603933459261       25.59114721596392
C           13.09458647163191       18.28193417880151       24.09037425353226
C           15.21136272131179       19.18026034456328       23.18687253418882
C           17.20547065419891       20.35536069554908       23.71156491340654
C           18.72734555953284       20.29529589106323       23.66418129950454
C           21.28664097336246       21.42546203094427       21.74557995290837
C           20.52520484017262       20.93462821301121       20.51462126160137
C           21.06075810533004       23.03048149587846       19.35187909262204
C           21.61007168371482       23.62986645269597       18.04065258783164
C           20.73906024541179       24.72551101860780       17.39152545319615
C           21.48957491880875       25.32608980738870       16.20012179714410
C           20.39170972871502       25.83852438385616       18.37578629281975
C           23.20432882978824       22.11450460712341       17.11362970229690
C           23.55570732336891       20.78054381877726       16.42073362889198
C           24.88852123215594       20.26203136951743       16.96641289170772
C           25.25141421926317       18.93473506299616       16.30206375309024
C           26.41160776364741       18.88916689484234       14.17214226189973
C           26.32458781960642       19.12002137931303       12.75249525530010
C           26.42001629880430       19.23913738442740       11.55820073715737
C           26.43485817473554       19.46321183522901       10.11470155399511
C           27.60330189471999       17.32250631666655        9.89761347894365
C           26.42497587091611       18.17723044392875        8.01495629779183
C           25.11571105001370       20.17186243548831        9.76096516321046
C           27.62394241715793       20.39503498081287        9.80079745794384
C           24.03323536010575       19.53892531634018       14.29451966430432
C           23.62078808631161       20.88788862052122       14.89600446535053
C           20.83515970365577       22.02179662263809       16.31862911478180
C           20.93887924978058       19.47459792967244       20.28826900993507
C           20.02890796008351       18.71226044188131       19.31934526148453
C           18.69361919017267       18.34327605963907       19.98309166818020
C           17.63879679923271       18.51638021536523       17.86256475432324
C           18.99441353412685       18.82039499459233       17.23133149244159
C           21.15794543829943       21.77050889587010       24.16615531719479
C           20.81313133732368       20.56452762924454       25.04425525900233
C           19.29786288128184       20.36118527568378       25.09166562493380
C           15.23018343971232       16.29831791195542       21.26439507914429
C           14.51659882125855       15.49897754465176       20.34276327685945
C           14.92794409027143       15.40881898485081       19.01684758730734
C           16.02091174552312       16.14095885617491       18.62155240669362
C           16.72753403980025       16.97297832315602       19.51438189675056
C           16.34053581773561       17.03239858951023       20.84161790794164
F           22.58431843761754       19.82940227392301       16.77392152055193
H            9.37444134642321       17.85938199066823       21.79918994059497
H            8.88441755528798       16.78986796100171       23.12725782320460
H           10.31599854506372       17.81985513248725       23.29247959272574
H           11.43623669806298       16.51522079748466       21.47065103692686
H            9.05683877269889       14.94438376757252       19.37558674423107
H            8.86966109550387       16.59743317546740       19.99402084688723
H           10.45995787595400       16.04818715502456       19.39668170583513
H            9.80021962170703       13.74060754003752       25.71881401638917
H           12.17514167008658       13.05382082036783       26.11443417885119
H           13.90173639707041       13.80646649926567       24.48315608557405
H           11.64156176029324       13.91822011372796       20.82029111365459
H           12.69742766258868       13.88266883160207       19.39513096925084
H           13.16478617386366       12.38236545940544       22.02200771966122
H           12.69471623942988       11.67218423469783       20.47528311262751
H           14.29806285140486       12.39804092982077       20.66398096896902
H           14.69078072953470       16.08256707574434       24.63555800400761
H           16.14548911875315       16.68903744662101       23.83549980057792
H           14.59603900364627       17.84916443843462       26.31307301413253
H           16.16121742548237       18.35978112979733       25.68203095830615
H           14.85131979643682       19.52946151957088       25.83595303333338
H           12.76985091023020       19.26681171866878       24.41661230419257
H           12.75942164148645       18.12280145213315       23.06884085738267
H           12.62853166348286       17.53352213871923       24.72666378905485
H           14.80996198331925       20.17752407459807       23.39058824445354
H           14.97826550488950       18.88885474432322       22.16091295426164
H           19.04474481638901       19.37833958159134       23.15942381722992
H           18.74324645299920       22.28075480743738       23.23135622825400
H           19.45305020548027       21.03222921442689       20.70769009552238
H           21.07593662003258       21.14607834846844       18.52994963287611
H           22.56234643671739       24.09328793523822       18.33143533056091
H           19.80435282786508       24.27925048989426       17.04510723417229
H           22.34320594959367       25.90035450322722       16.55364869408375
H           21.86198594593904       24.55976822151465       15.52876837055264
H           20.83468347251575       25.98979191023357       15.64492358885837
H           19.83837654715725       25.45643369863507       19.22876933535395
H           21.29571779820531       26.31175600525541       18.75002147558287
H           19.78674936431711       26.58959562953629       17.87391970911375
H           25.65518784142876       21.01213548490285       16.77750287734728
H           24.80680224855619       20.13159864463903       18.04653754171825
H           24.50741307437415       18.17557783413144       16.56419694688502
H           26.23766710791428       18.60113194789905       16.62780612753465
H           27.42479818598595       16.30311402668877        9.55764249305116
H           28.57413916029859       17.65060647001047        9.49605970082345
H           27.65872337789375       17.32049247327793       10.98479512893250
H           25.55301291512182       18.73594396398125        7.69155355192611
H           27.32371200241430       18.60213095349087        7.54443516506073
H           26.31842700942223       17.15012681581440        7.66871086371432
H           24.29353983214566       19.46558099198325        9.82134859604979
H           24.94356511015456       20.98210318792231       10.46429681931424
H           25.16114220553706       20.59368433379482        8.76098762108886
H           28.56274053693604       19.93700297162607       10.10424573520683
H           27.65714067382682       20.60965072552834        8.73633897059294
H           27.50871790432272       21.32942407424055       10.34371980759624
H           24.14282685939154       19.62319853610046       13.21327159648353
H           23.26203942247958       18.79514814100263       14.52277379475979
H           22.65773833880993       21.17977664300495       14.48536426655941
H           24.35903674902942       21.65160702450027       14.65075181929203
H           20.68853703056841       22.62375189090882       15.41960944113741
H           21.00541530030370       20.98992675362027       16.03517489542954
H           19.92576531030156       22.05667979568382       16.91675004506821
H           21.96196823874078       19.48232739059015       19.90779047968389
H           20.94236100217382       18.94851748546915       21.24236487424185
H           20.53032975207028       17.77215877712861       19.03369535184310
H           18.21584687875182       19.25712470098624       20.37469652109935
H           18.90380694468279       17.66411280471934       20.80948398789954
H           16.99871479285204       18.01884106592363       17.13944992003422
H           17.16819909275052       19.46664764991017       18.16113234526405
H           18.88257772495600       19.49209987867835       16.38066420558302
H           19.47012172366942       17.88483221018283       16.90862412185512
H           22.23277185688832       21.86399656446723       24.01664643858127
H           20.77138401124411       22.69373729526919       24.60589965495152
H           21.19693256251968       20.72816806263308       26.04929331507516
H           21.29354296943139       19.67658145182180       24.63036843343998
H           18.82481030612431       21.19671855922837       25.61541333540043
H           19.05834757180947       19.44152191423946       25.62534316607381
H           14.41340003763121       14.77911554139552       18.30684145109580
H           16.36139561934786       16.06193929821204       17.60119389975381
H           16.87078499730011       17.63952062777004       21.55470606649897
