151
 energy: -221.323023600501 gnorm: 0.008970542240 xtb: 6.7.1 (edcfbbe)
C           10.98437306328019       14.92094143025384       23.39903884350264
N           12.72149482681662       12.78779921193966       22.73952190701882
O           10.92961125205110       14.32652824988366       21.01156062947388
C           11.72902395628942       14.86951862136576       22.06557429086985
N           13.85622098798410       16.10349155681715       19.93749929104393
O           17.23624984867412       18.84742867677489       23.91527374712300
C            9.85772203968673       15.14314961823898       20.59096100208912
N           19.35078768728710       21.60137028139515       23.36096260407796
O           26.01467974670016       17.59067895725077       15.55970178524182
C           12.93699597648586       13.95679367667498       22.15415831473242
N           20.71998144807610       21.88026092635957       23.31625495017116
O           23.57717978680185       22.91001262915221       18.13109789430500
C           13.70478418538098       11.90951891148776       22.82559014047191
N           21.04255076744200       23.08816305727293       19.94211472396667
O           19.23636345963839       24.15467771195815       19.09769725100235
C           14.97127195994277       12.13930651006827       22.31374762135432
N           21.62240709361890       23.32169076883377       17.10882664382000
O           19.01884781131844       21.21543116600660       18.30862411430027
C           15.21141032700943       13.36157629532274       21.71361703385852
N           24.22727969441583       18.98327039363251       15.44196730085052
O           22.51442755011809       22.41163248025454       22.05709386327786
C           14.19094979258976       14.30908091725955       21.63084487631260
N           25.93085142799251       15.75610476023021       11.00832905030504
O           16.80971027776787       21.01832306528482       24.26563460200740
C           14.49141390158810       15.62546106251521       21.05997921033286
N           16.39202374880591       21.01394322489070       19.42680616858812
C           13.16635739078541       15.28888795436988       18.96756386825804
C           14.16066526225339       14.62368727785848       18.01607975732983
C           15.39252009732947       16.55290144006742       21.53724404671422
C           16.27179772814934       16.38469599044138       22.73603702440817
C           15.72615817073028       16.97349948920960       24.05851153076349
C           16.54694357681995       16.41142948357659       25.22244964155628
C           14.25584951398988       16.60869843408364       24.25154245063911
C           15.84898998881312       18.49999152731944       24.04593931623523
C           17.57884755106952       20.10970426950617       24.04529083009966
C           19.08224910822314       20.27889184984860       23.91339893690290
C           21.30929703150787       22.19837459169771       22.15393824100366
C           20.37623814488931       22.29562534553705       20.94642007156195
C           20.43482276472291       23.91328633412733       19.08304383165300
C           21.40533851798541       24.45618584633539       18.01751020535223
C           20.92221511234895       25.73467017944183       17.32488661026722
C           21.94481567398909       26.19160513377923       16.28606223220897
C           20.72374963267809       26.82934403718262       18.37377209601229
C           22.69051154426861       22.55545650766816       17.35235989117462
C           22.82492613722021       21.16303780324256       16.69945895937788
C           23.92252595244625       20.38687647792917       17.43151969411116
C           24.03267553021642       18.97480350244544       16.87408493877463
C           25.16798387190383       18.19399410721923       14.89557324216932
C           25.11660376673834       18.00869418769700       13.46889635470358
C           25.19125393319147       17.53629008358322       12.36240017292299
C           25.21047655542380       17.03923588693697       10.99047418806144
C           27.25488715674794       15.82354888041043       11.59307646574644
C           25.96887604702208       15.05174088679756        9.74364635818677
C           23.74579832636661       16.81053116321475       10.57896935592215
C           25.84384214121962       18.11921879447756       10.08904178883255
C           23.23991592265196       19.72134995158894       14.69083954607926
C           23.13130396433331       21.16502399899640       15.20079901513358
C           20.52575798638222       23.03614807307860       16.21094178739895
C           20.08711521770631       20.86652240471303       20.44522175169667
C           18.81877809180720       20.68895794384681       19.61038952382978
C           17.55717754574465       21.31352174579076       20.23849973393612
C           16.62724920699995       21.59202761581167       18.11178201337578
C           17.88306216800632       20.96822949066766       17.49588913150413
C           21.47677464992540       21.72246155758120       24.55014330097946
C           21.25365873412115       20.32120503305353       25.11992474217615
C           19.75544678299644       20.07066355414243       25.28195164050257
C           15.33270494252468       17.67057615855040       20.64582739675139
C           14.37172414971749       17.34419753033930       19.66306681312755
C           14.06845905329578       18.24119462930334       18.64889453598373
C           14.74723876519649       19.43430074344538       18.60601753786123
C           15.76466409026282       19.76900383745236       19.52929290312664
C           16.03868163293376       18.87355220917227       20.55876251249759
F           21.61965645008914       20.47100904325126       16.91200680191747
H           10.62917765878742       13.92539887929798       23.64530317286433
H           11.66079969591421       15.26175283223395       24.17640785278940
H           10.14401005916902       15.60633759051382       23.34168005503205
H           12.04759565770107       15.88462669195761       21.77921094637287
H            9.46917612341284       14.67654060485271       19.68909842090614
H            9.06609079710468       15.19114734866520       21.34186264477178
H           10.20614093004428       16.15328850045034       20.36204957652476
H           13.45596913959469       10.98499214383928       23.32939904054334
H           15.74154784017430       11.39013472283940       22.38691194096369
H           16.17942430122084       13.59018899169910       21.29344296840551
H           12.58016734213822       14.52928631943115       19.48810847565256
H           12.48408444602904       15.93197143902960       18.40647060677436
H           14.80698614576420       13.94325054822133       18.56702500440657
H           13.63101806505033       14.06274935621188       17.25268319069322
H           14.78099882016431       15.37741321466857       17.53569226475652
H           16.43111646730270       15.31783432297144       22.90077482967776
H           17.23946394742382       16.84366670964399       22.53117052652316
H           16.43280333478128       15.33200249613792       25.27199988095818
H           17.60034909136944       16.64282861799994       25.09365763851696
H           16.20924457410261       16.83622544910918       26.16416655283039
H           13.89161427368716       16.98782160304413       25.20258441737383
H           13.64932059012954       17.02867659071861       23.45479670695955
H           14.14153161472689       15.52764185076850       24.23955981439659
H           15.46405772813083       18.93959129522904       24.97157955220587
H           15.29923302963025       18.93312358817643       23.20411790638941
H           19.45483841008857       19.52062280275367       23.21655043463537
H           18.85864424030838       22.29686785780835       23.92345221996658
H           19.45151076775930       22.79564646559925       21.23666836162131
H           22.05265564661139       22.98286426454221       19.92339801154905
H           22.37017745110589       24.66065569765250       18.49150290123936
H           19.95862470628680       25.54551595965100       16.84699541113410
H           22.15764884983847       25.40982662688455       15.56340692551002
H           21.57198974980516       27.06306479897059       15.75612367261997
H           22.87686878355382       26.45915054600533       16.77781329035258
H           19.94122707004473       26.55040101433904       19.07402660666162
H           21.64401302668635       26.99843095283799       18.92909926578549
H           20.43788398107412       27.75839834785276       17.88829218064782
H           24.85655706850595       20.93333151472509       17.31948428760672
H           23.68978750378300       20.34071658042596       18.49537173378110
H           23.11080498589980       18.42495738707898       17.10175432281613
H           24.87776249253947       18.45047592344675       17.32337861049828
H           27.21267210294052       16.34164354982192       12.54948916241848
H           27.60173663350641       14.80592359626334       11.77119413819674
H           27.99063284409307       16.32723279272932       10.94703356123241
H           26.39997809908155       14.06886177034530        9.92715057061038
H           24.96285230022985       14.91423867663304        9.36002916970995
H           26.58324170188723       15.55420255608542        8.98208674596760
H           23.14966119752597       17.67067941663797       10.86811805147269
H           23.66238433560044       16.68025188588767        9.50560014596698
H           23.35914418980062       15.93041142660151       11.08266131627620
H           26.85504529444171       18.34895065131069       10.41555061956018
H           25.87031567890011       17.77168815594183        9.05930261858479
H           25.25101393071129       19.02790864378981       10.13705980096097
H           23.52243285443168       19.71501648054274       13.63736234935650
H           22.26389822361491       19.23364082594494       14.80243017379576
H           22.34856573228900       21.67340498445912       14.64193115641697
H           24.06961979502109       21.69684051911645       15.05544806506468
H           19.59490017874591       23.23598821834136       16.73834094250106
H           20.58743255578234       23.67985652858124       15.33285368411452
H           20.51709942216352       21.99860994312095       15.90547107942870
H           20.93812443484114       20.53666538766216       19.84501828504321
H           19.99713808858977       20.20652023785099       21.30484474891382
H           18.64281102875351       19.60117318222060       19.50625893872425
H           17.66694777228205       22.40081264383464       20.22925263352106
H           17.42656273835850       20.98966819013775       21.26928147719523
H           15.77803051605734       21.45570136567099       17.44991378122736
H           16.79692761430003       22.66334646774386       18.25123574630308
H           18.10519999573589       21.39610994145372       16.51920864541885
H           17.73754472430058       19.88038068224438       17.39657310552627
H           22.52507700141795       21.89528893726161       24.30740816948855
H           21.14010678114530       22.47946337040611       25.26617050970802
H           21.76270985816864       20.23793986190919       26.07871168781341
H           21.67574643868163       19.58003357901661       24.43854321956589
H           19.32890186422434       20.77439956834685       26.00068343024471
H           19.56779287810180       19.05738042836562       25.63370668776606
H           13.31522323905931       18.02196886804592       17.90745279226980
H           14.47457380828082       20.13420225386695       17.83438475561522
H           16.79998753804334       19.08329281560544       21.29336716129875
