151
 energy: -221.324655210458 gnorm: 0.008887127988 xtb: 6.7.1 (edcfbbe)
C           11.09583186490183       14.95556999942976       23.65362831093078
N           12.65800309840445       12.81416633971521       22.66128186263719
O           10.77081950547906       14.51668496954639       21.26109454574385
C           11.69675178136608       14.97508774504367       22.24746065978255
N           13.74943737588676       16.23482990605781       19.99115461142223
O           17.14598207132637       19.11870377060181       23.73153625980256
C            9.76722390860903       15.44548682052762       20.91112885413855
N           19.27053579745008       21.78491621769574       23.48016052150500
O           25.38994764515795       16.62722709268223       15.68029808692459
C           12.87907512866485       14.02786487897436       22.17697259067213
N           20.64141779506397       22.06938770251849       23.43895614908488
O           23.35831969145796       22.13683407285791       18.27058838824598
C           13.62378737029471       11.91506123573579       22.62839019269887
N           21.08007385444318       22.95527282141690       19.97644192881621
O           19.30822607932307       23.86504795078994       18.90252117181210
C           14.88545373872365       12.17761601913127       22.11845026666611
N           21.60802843070572       22.80949402040928       17.03237309291879
O           19.19548522983596       20.87716253897688       18.39956827942506
C           15.12933914276070       13.44264865410734       21.61782824626840
N           23.81476318350552       18.24610306026084       15.47243775609683
O           22.46928919654752       22.48489719170755       22.19115500629696
C           14.11523026898412       14.40175568786798       21.63099465493042
N           26.84485121071777       16.89573270421345       10.68901602984279
O           16.78736995950566       21.08761832712851       24.74713380755018
C           14.40130614554014       15.73634167884915       21.09597035289610
N           16.48569818501793       21.00360127100604       19.31116663892180
C           12.92369926124294       15.48983677146904       19.07328978423851
C           13.76129522432219       14.85630872787753       17.96299571085568
C           15.33860332732840       16.64223868103043       21.54597121734756
C           16.23199186846479       16.49251664956190       22.73691045112861
C           15.72780561857201       17.18062593327630       24.02637874532952
C           16.62414719971531       16.75828031612259       25.19489768556170
C           14.28304456029134       16.77882789177220       24.31650425599638
C           15.78177032970893       18.70704131862956       23.88270879583733
C           17.51990608038851       20.28182622239925       24.21611112347223
C           19.01961629380147       20.47302976502445       24.07106294390496
C           21.26194049660869       22.27915135065285       22.26880768074196
C           20.37091417243665       22.26333237152326       21.02660499921154
C           20.50589513813054       23.62648498955537       18.97506898932491
C           21.50868410118127       24.01253568850229       17.87338443509480
C           21.12478230288327       25.28653741843804       17.11389859237260
C           22.20620195439653       25.65156117070668       16.10059885749756
C           20.94249074092631       26.43175775943907       18.11238244626815
C           22.52170088454536       21.90210221476314       17.39331444736523
C           22.57041653315288       20.52218375797651       16.70717055405540
C           23.49610017006245       19.58949086116936       17.49465976451394
C           23.46933792968273       18.19629493396420       16.87604060565801
C           24.73839402476132       17.40416772333385       14.97912794960112
C           24.92301124988265       17.42327151738220       13.55169020837841
C           25.22616607870547       17.23803311106952       12.40044509039101
C           25.41315258601836       17.07458012285116       10.96265307069501
C           27.70706341106150       17.84241328797594       11.36609861856462
C           27.18494643511529       16.80582015110942        9.28530158868028
C           24.65265599237090       15.78875895226981       10.58815281478193
C           24.76856627319946       18.28684368609866       10.25673845156029
C           23.02003218838368       19.14381448858222       14.66798248469892
C           23.03714282988441       20.56312586735670       15.24975150996000
C           20.55351562009931       22.63990486166448       16.05862829867260
C           20.09733424006652       20.79847913302877       20.63097445066605
C           18.87364177512518       20.55464793847115       19.74509063206567
C           17.60663211046521       21.31602618722832       20.17858064320868
C           16.86248224470054       21.36942159859494       17.95356972256110
C           18.10768020425143       20.57888431824673       17.54605086488542
C           21.36459059891458       21.99776547263012       24.69832344813508
C           21.17728939679298       20.61384348355645       25.31893464249474
C           19.68556582638093       20.30949769287711       25.44915092210974
C           15.28927258669455       17.75309258247546       20.65077258324535
C           14.28651522957248       17.45950614340752       19.70076002082107
C           13.97829103999171       18.36509547442225       18.69285406953185
C           14.71000410897290       19.52362002636883       18.61669529330348
C           15.78568396581833       19.80299601378277       19.49041670636126
C           16.05023686713937       18.91969248270746       20.52674108035169
F           21.28972713211320       19.95223924339432       16.74781364143247
H           10.79827129013136       13.93940323819960       23.88895049620664
H           11.83967048347289       15.28823016743028       24.37083179118049
H           10.23281331726847       15.61207576403623       23.71712555667429
H           12.02133361451930       15.99448899069110       21.98731148955765
H            9.04215115665587       14.88857806142614       20.31802123651319
H            9.26787356208182       15.86127806045577       21.79229613444073
H           10.18630124580223       16.26656617368237       20.31235384081197
H           13.36736515808046       10.94541619472333       23.03229730205981
H           15.64608396661048       11.41423576502094       22.11047664070114
H           16.09080677376242       13.69859787046948       21.19691863326882
H           12.37876845357592       14.71694105932796       19.62059182725190
H           12.19821570982902       16.18144725382252       18.63599574921007
H           14.45659950471981       14.13209228222533       18.37956455231062
H           13.11229445031496       14.35136377855098       17.25538734725356
H           14.32949590086942       15.62094733017543       17.43878617138150
H           16.34974345100781       15.43030264262706       22.95871522642920
H           17.21367504235295       16.90239073924909       22.49399275480946
H           16.52204683061240       15.69243929241644       25.37875659459126
H           17.66696386065617       16.97384220675130       24.97438085296416
H           16.34273236156307       17.29235592565721       26.09933435386330
H           13.95547387483574       17.19618894002908       25.26540396816761
H           13.62157008665343       17.13739190100084       23.53254198229498
H           14.20841711481832       15.69520136320821       24.36562152568060
H           15.36615985838491       19.20173973599288       24.76652810964709
H           15.22330962203458       19.03621522543440       23.00284488186339
H           19.40219360680679       19.70541384500951       23.39003743595388
H           18.78528205852022       22.49097145980066       24.03653069833880
H           19.44085184428371       22.79018448698594       21.24083119275364
H           22.08006058163923       22.78979563501111       19.97320415020698
H           22.49560679127067       24.15631387001879       18.32598341088478
H           20.16945863999100       25.13227817867246       16.60756295308652
H           23.11163844343774       25.96017106664946       16.62118387231871
H           22.45766205340424       24.81087421769355       15.45877563234353
H           21.86914501193225       26.47629290518593       15.47872484082083
H           20.10564860041869       26.23065674541345       18.77569449648947
H           21.83982402596265       26.56152553434993       18.71268871027617
H           20.74396005106205       27.35681705037338       17.57874994285671
H           24.50126864410421       20.00816205750286       17.48043929646837
H           23.16765151478249       19.53836640336531       18.53245165798844
H           22.46388444082685       17.77162229760775       16.98327280291097
H           24.18714286625420       17.53957675460581       17.37158111279927
H           28.74017761775343       17.52512256136369       11.22429310077773
H           27.60956955478448       18.87180019199008       10.98535397001043
H           27.48710605146765       17.83894933904761       12.43189160191258
H           28.20811092311663       16.43658058809992        9.20980513784046
H           26.53229805963503       16.09601247594427        8.78602878624023
H           27.13400196604996       17.77438263632229        8.76480653881170
H           23.65589478392895       15.81350477748749       11.02290205238803
H           24.55532910964029       15.69451556673746        9.51062762366287
H           25.18558688078554       14.92598735434034       10.97922993818429
H           25.27602646484657       19.20704214967062       10.53558305077249
H           24.82119483845700       18.16214060267959        9.17851648937230
H           23.72484448035111       18.36322393675573       10.54865604341025
H           23.41547697227689       19.14983150101001       13.65167220202363
H           21.98493533727473       18.78243818709845       14.64695562558730
H           22.38911746321336       21.19898065267947       14.64966948533510
H           24.04714021163437       20.97159711858214       15.23216762060428
H           20.47478049144505       21.61201405639199       15.74013393786503
H           19.61017031604085       22.92489663739399       16.51596523306332
H           20.74162162464971       23.27643164124490       15.19279591501310
H           20.97405976993679       20.42967750699255       20.09350206986270
H           19.97527408176153       20.20417242437449       21.53209923128728
H           18.65321444545003       19.47143854049638       19.77735186123139
H           17.78884738161643       22.38770613842538       20.06021172016365
H           17.36370007542248       21.11223923858901       21.22098707630158
H           16.05701472138138       21.18058083049549       17.24978639186902
H           17.09746630316166       22.43732278497440       17.95128730467090
H           18.42979038927383       20.82509291097548       16.53685201954801
H           17.88513189285683       19.50102649475716       17.60227236015145
H           22.41288100937445       22.20220674403567       24.48027153458028
H           20.97361193031800       22.77015998333207       25.36824151787002
H           21.65558723522861       20.58560144987680       26.29788182166629
H           21.65103359469940       19.86550943277113       24.67961345664355
H           19.21662282757673       20.99588639194150       26.15757098403754
H           19.53156666303920       19.29061076519687       25.80478836907787
H           13.18416809970516       18.17998166887502       17.98677941733887
H           14.44677324087794       20.24677009429426       17.86240139162528
H           16.84840746166190       19.09733212196282       21.22865673458962
