151
 energy: -221.310122976717 gnorm: 0.006313836706 xtb: 6.7.1 (edcfbbe)
C            9.73854395281138       17.29670388732557       22.63307000341099
N           10.36456977013825       15.18464571276177       24.45358601840881
O            9.77374815068358       15.02872073769980       21.65960366462998
C           10.56116823235280       16.07095722522053       22.23617544825704
N           13.39792931238503       14.99316254773793       21.17651017581628
O           16.74197213610343       19.36891951307819       23.07010080446307
C            9.19703493487458       15.32463525160142       20.40793108754073
N           19.47664846155952       21.46771307596610       23.00474567145467
O           27.11163735546582       18.32709173136196       14.77181671722272
C           11.20083942340762       15.43667112675033       23.45751603092154
N           20.83950261229155       21.32249688026303       22.74360931603421
O           23.88260149921949       22.56202156800027       17.76087923155486
C           10.81254844721300       14.59634963912326       25.54749291280238
N           20.61091540365051       21.66982901141724       19.28049031878820
O           21.14163859369213       23.46199843882052       20.51786851425616
C           12.13366415450962       14.21078109277726       25.71092727554309
N           21.73521132485229       22.61770479484758       17.08729832093742
O           19.54646298173152       19.51842642364774       17.87734852644294
C           13.01665884423895       14.47630557208158       24.68055032690071
N           24.97140279070394       19.07556123011010       14.77375091029325
O           22.61476161544998       21.01002302062158       21.39691980982325
C           12.56438998901872       15.10823698254394       23.52213243161708
N           26.65743581511298       18.30111325871020        9.46675830902598
O           16.86881290934787       21.34939584537139       24.11802111368575
C           13.52157512461326       15.45562104408128       22.46910439093016
N           17.66438631342608       17.61478163380678       18.81250006350677
C           12.61584532450157       13.85384480106225       20.76361274203333
C           13.42098170617185       12.56159998080494       20.89659846941084
C           14.60172170746715       16.30732664566289       22.57172783380940
C           15.12976269723930       16.96771387095950       23.80715306995286
C           14.67704051154646       18.42243057356772       24.06646209844970
C           15.10395910799192       18.81930854578446       25.48236433157527
C           13.15911032010154       18.54191171566407       23.93281013933062
C           15.30472092621003       19.39102794545782       23.05283105534134
C           17.39401263978372       20.38677401414037       23.61076119736036
C           18.89737977018823       20.20695871788661       23.46503773127338
C           21.39586816414784       21.07218292907947       21.54912432381730
C           20.45692910285552       20.73849689501340       20.37827478442952
C           21.05853000386238       22.92167121424484       19.42011888280514
C           21.48038135543224       23.62700478954880       18.11763931309819
C           20.54413430961109       24.77154045534893       17.68498861767510
C           21.09657106745410       25.47158443272530       16.44311904596490
C           20.41046993552178       25.80143186554388       18.80605245655089
C           22.96199800400921       22.06791664183685       17.11220349868574
C           23.25205276179919       20.76675774107307       16.33358231030496
C           24.48768961627550       20.09228292706221       16.93350040381864
C           24.79087324293189       18.79980813662176       16.18049791832890
C           26.14736120969736       18.82109710453519       14.17942970584521
C           26.25501614499154       19.14759760113728       12.78111890048684
C           26.54674241017718       19.28963944999789       11.62151276306695
C           26.89674128690536       19.53786542410049       10.22541960941612
C           27.30077593290728       17.12779769795330       10.02464741239709
C           26.92977478584887       18.39702480457682        8.04699128411414
C           25.97635636217680       20.65661773599543        9.71059213157661
C           28.36215834384656       20.02423583081149       10.22049096827743
C           23.83229894143776       19.68855850888768       14.13406299052905
C           23.45295199296619       21.00020207571646       14.83498938752731
C           20.63816728235981       22.21016902962929       16.22254694063183
C           20.87060173175255       19.34104672567651       19.88929668397415
C           19.85222126093299       18.66762624929406       18.96755282631115
C           18.57709510212846       18.27413226273946       19.72181877614243
C           17.35496707276777       18.49344509424348       17.69411077674129
C           18.65142828656865       18.87901893838579       16.98641076734824
C           21.56977892731727       21.16939292523661       23.98849349029503
C           21.08258296350895       19.87715200212586       24.65233797932777
C           19.56132056175390       19.90422983386508       24.81850193392108
C           15.17435102695181       16.37972307479795       21.26793758509656
C           14.40903314225359       15.53640738362581       20.43161185796903
C           14.73107725483926       15.38572388936983       19.08675073704237
C           15.79851052003497       16.09630557927787       18.59051560040707
C           16.56545963755253       16.95447619277783       19.40226806030825
C           16.25957555218747       17.08297735922303       20.74502978533327
F           22.18869104382907       19.86913375208286       16.51851711048362
H            9.30964327572371       17.77324413178215       21.75595610458635
H            8.94718209872959       16.99112095648235       23.30873001049288
H           10.38107979588431       18.01098585478537       23.13756179924128
H           11.33632875244735       16.37208743211158       21.51384952329241
H            8.44595820115155       16.11328045101111       20.47762623472495
H            9.96129021739821       15.61556585742462       19.68393761926638
H            8.71916483215878       14.40657092814684       20.08471001836454
H           10.07263583862196       14.42523529398715       26.31786129918875
H           12.45818086236116       13.71722496685460       26.61357495673913
H           14.05321206773802       14.18278631640856       24.75463294298437
H           11.71425123047887       13.79581893448005       21.37591653880433
H           12.31870622960868       14.00284954641556       19.72230273555998
H           13.66610317611605       12.37703602514745       21.94098434243584
H           12.84250520748005       11.72270052355766       20.51905904706564
H           14.34746192426011       12.63570098498744       20.33080140829952
H           14.82410719087574       16.38170722170199       24.67468354214110
H           16.22141404301706       16.95809479506906       23.75962479917299
H           14.57690404220664       18.21629994616029       26.21667122475952
H           16.17311930033419       18.67152113160022       25.62092947360962
H           14.88084611263632       19.86744966714238       25.67052099970039
H           12.83212005392576       19.54779109231272       24.18425461615329
H           12.84995975053336       18.31698215145902       22.91503980341943
H           12.67042308323027       17.84011165346532       24.60384299383164
H           14.97715833861133       20.41324092913970       23.26305642655742
H           15.01869761225401       19.10714676533967       22.03843435962209
H           19.08090383111567       19.37210397384405       22.76765655326627
H           18.98822650674014       21.90906927131659       22.23616036341743
H           19.41081432944034       20.73510778742912       20.70160465684264
H           20.52438143739329       21.22925396039777       18.37377415560972
H           22.45318031755133       24.07537872251905       18.35873112834658
H           19.54883496278449       24.37392368559424       17.47092428126929
H           20.42521705422519       26.27426190971588       16.15056337863202
H           22.07077027254209       25.90105404863976       16.66444983790783
H           21.20837169820713       24.79526889189729       15.60321424496030
H           20.08688215978056       25.34220195372022       19.73603191923699
H           21.36785681845019       26.28313278539396       18.99137358010885
H           19.68768446488252       26.56227033594969       18.52263365575250
H           25.32670410161469       20.78404793994624       16.87176447495876
H           24.30760421387682       19.88233640820366       17.98911198377829
H           23.95982926604575       18.09714510801265       16.30176065610348
H           25.70745551300117       18.34313228636862       16.55772618576745
H           26.89044840804383       16.24641876714594        9.53121367346807
H           28.39281920660080       17.12166621329492        9.88406631951570
H           27.08822852065088       17.05968180468904       11.09050891068207
H           26.37115882493600       19.21898612950871        7.61244787594457
H           27.99697028882288       18.52277346849616        7.81574191638581
H           26.59359552569993       17.47252351469398        7.58030635469773
H           25.93248461415170       21.45556740324274       10.44610247815867
H           26.35565429577516       21.07015143176812        8.78078089047316
H           24.97581440460198       20.26494025947213        9.55142396668399
H           29.01996838067475       19.26454262090706       10.63657782880437
H           28.67836499651402       20.25770671607078        9.20725496418082
H           28.44927049554013       20.91950193478728       10.82988077046857
H           24.06885379376639       19.87489638469390       13.08623830886215
H           22.98684554425946       18.99508432923431       14.19546949288651
H           22.54336585782203       21.39181873202584       14.38392410065681
H           24.25033621030145       21.73514908345185       14.72274338012691
H           20.65614175428487       21.14558990340488       16.01464641679444
H           19.69537635833658       22.43819454328012       16.71204267363420
H           20.67823901246529       22.75796419033719       15.27928296350751
H           21.82438982334041       19.44977908959702       19.36930760643173
H           21.03797867691557       18.68980355046614       20.74854216862164
H           20.30641214726152       17.74375460429804       18.57217651187582
H           18.11905692386283       19.17659785879571       20.16110142843270
H           18.84391870969606       17.57851325387954       20.51865496029710
H           16.69322848668629       17.98424248857829       16.99662803070004
H           16.85573301750184       19.41168373150701       18.04956171933866
H           18.45572256453402       19.59515683355978       16.18839529114597
H           19.12906815961536       17.98115071689204       16.57340473572626
H           22.63321281970572       21.13179146510702       23.75628538336132
H           21.35189359886552       22.03432556691975       24.61523139986683
H           21.55996040138091       19.76403765434805       25.62316226102279
H           21.37047643310257       19.02984937608836       24.02628562346431
H           19.27819268263285       20.69489706599409       25.51316220747199
H           19.20636078719017       18.94726201046426       25.20089677003106
H           14.16841483366057       14.72788356508170       18.44192495238149
H           16.07425777046004       15.97804986041767       17.55443228565706
H           16.83361728322889       17.71491664065205       21.40016381942798
