151
 energy: -221.309260009015 gnorm: 0.003661418932 xtb: 6.7.1 (edcfbbe)
C            9.65579464446136       17.21762093618574       22.59416696210625
N           10.32903359649908       15.12540722478390       24.40814974141450
O            9.79554431744869       14.96501403254800       21.59843285364878
C           10.53370711797614       16.03023324299954       22.19964778383277
N           13.39174123256540       15.00552818933490       21.17113078272770
O           16.71588441015071       19.39454468353135       23.10466286258128
C            9.24978272513984       15.24452100359719       20.32742600722665
N           19.47955454658180       21.41578600050024       23.06120745004801
O           27.12969220637358       18.43637563744734       14.76038730124557
C           11.17323606591270       15.40592203329409       23.42607407625422
N           20.83992426096678       21.28192559186057       22.78005082847550
O           23.87705260548278       22.66912201860715       17.69744054888299
C           10.77742032380332       14.54299276484954       25.50503031181418
N           20.68894066673484       21.64119499667668       19.26422483299469
O           20.86540342034940       23.52320407508191       20.46198636989890
C           12.10710685325720       14.19808606346368       25.68828772731836
N           21.71344262437743       22.64649852603690       17.06916588614037
O           19.60734650929678       19.48475692715082       17.92105248658375
C           12.99769046539898       14.49246117919323       24.67262402898702
N           24.96854003397750       19.12213384677692       14.76920188330284
O           22.61288765205473       21.12736512724158       21.40407168386307
C           12.54382845557144       15.11312666047701       23.50822390110182
N           26.65279937056539       18.28879109376560        9.50180659557372
O           16.91988757172173       21.27130200407539       24.31869205347216
C           13.50312701292657       15.47748124522293       22.46286084839670
N           17.66740015436638       17.63607676455590       18.83833849304979
C           12.65482853577171       13.82814708303647       20.78208053984687
C           13.48587766713958       12.56635309126531       21.01207590582007
C           14.56941209248570       16.34536685310690       22.56526020246539
C           15.10235076701731       17.00477538501481       23.79811106783955
C           14.63336289097240       18.44974204521765       24.08330251639789
C           15.02461142913907       18.80676242579432       25.52022187900426
C           13.11715182900699       18.56024140996197       23.92051645267053
C           15.27879007024211       19.45109796119998       23.11189144759982
C           17.40632226848975       20.34681908086900       23.71209221153861
C           18.90261539671421       20.14922403151250       23.51028299210551
C           21.39435759899691       21.11424607373782       21.57043701838108
C           20.46705269159608       20.76585364297955       20.39416633089975
C           20.95720861998186       22.94468735281579       19.38290759203176
C           21.43278308233738       23.64830215834535       18.09641513110514
C           20.53296947193929       24.81262806367510       17.63361372558614
C           21.04507230184327       25.40271727367136       16.31706911633892
C           20.52515394662787       25.91357509612873       18.69443864705625
C           22.95739128504663       22.13588161627404       17.07810805647896
C           23.26541553163752       20.82983914408935       16.31715007277782
C           24.52088142314719       20.18582268677500       16.90962658132056
C           24.81150759954113       18.87434784645065       16.18391439006249
C           26.15058565493059       18.90572577977391       14.17304081453263
C           26.23852735061119       19.20888993489052       12.76815130464306
C           26.53250431151639       19.35028152895304       11.60886137476439
C           26.89557753068663       19.55479850255003       10.20900921181961
C           27.32045118082724       17.14316198609404       10.08667345997930
C           26.89082635848320       18.32747303092936        8.07319543695622
C           25.99239458220424       20.66055675570820        9.63915015345422
C           28.36625506179495       20.02374765694893       10.20101586806765
C           23.81522416073658       19.71207879834947       14.13379644835435
C           23.44033429013815       21.03663241459229       14.81125475566099
C           20.61329682583819       22.19821755337081       16.23025955429643
C           20.85890996305557       19.33836373953222       19.98310627495938
C           19.86977689654137       18.65459929577323       19.03730224083513
C           18.57001555831258       18.28772706151828       19.76178193952982
C           17.40366490080077       18.49639364687351       17.69593096966895
C           18.72791680076686       18.84010412098164       17.01853976529007
C           21.59021765086524       21.10276646061920       24.01090610022482
C           21.11540883533076       19.79572274360175       24.65348875468739
C           19.59613504345819       19.80640678475649       24.83910270831148
C           15.14570610123865       16.41925954594099       21.26328224286187
C           14.39992826982656       15.55738773588925       20.42848252456732
C           14.73824926043995       15.39923832996094       19.08874067803642
C           15.80569575508381       16.11390345120334       18.59834631853424
C           16.55457590184539       16.98719138432524       19.41068611736253
C           16.22581442553540       17.13268433284500       20.74650468333796
F           22.22316405894646       19.91515468093772       16.53552635335971
H            9.23076852296805       17.69050236322916       21.71321779916534
H            8.85921479661833       16.86911991465371       23.24450421670020
H           10.25875065856482       17.94790939893870       23.12600030562569
H           11.31045713630188       16.36736331982058       21.49428926768214
H            8.45037785747287       15.98733449111300       20.38213913838299
H           10.02572357268572       15.59314398567782       19.63604798063871
H            8.83955038343744       14.30037469543380       19.97409102617817
H           10.03176917264767       14.34549371946514       26.26293217080692
H           12.43242193764030       13.71314315427698       26.59446020891615
H           14.04168304596489       14.22958049974349       24.76211318604074
H           11.73000881629883       13.77497823868792       21.35922242856531
H           12.39843363613194       13.91900751217603       19.72384833607066
H           13.73616873262555       12.47043392362179       22.06638153669021
H           12.92365881858343       11.68948280793734       20.70567487443394
H           14.41007238352090       12.61305922291839       20.43972805984791
H           14.82008446559680       16.40534617599880       24.66405417477059
H           16.19322565215990       17.01211021198231       23.73421209303039
H           14.48286304714287       18.17905669525798       26.22301398708312
H           16.09134090701238       18.65991171599829       25.67930261277983
H           14.79243035250669       19.84746898994088       25.73555783615905
H           12.76734466780081       19.53451219714504       24.25137980675726
H           12.83390567586886       18.42093356726469       22.88027219181530
H           12.62563833637821       17.79428191429030       24.51454894572131
H           14.97816311924525       20.46942772747035       23.37613201235683
H           14.97673972989889       19.22473677975781       22.08765048468412
H           19.05357859604615       19.33178898138340       22.78525426566339
H           18.98039512627465       21.86973619759102       22.30592406584120
H           19.41416309425960       20.81376202911184       20.68981842550135
H           20.70185001113208       21.16338710101244       18.37400454387874
H           22.40317282743662       24.08145200967429       18.37357688692714
H           19.50671273648621       24.45690632689405       17.50488301044664
H           20.60210105299673       26.38348121111674       16.16589680071441
H           22.12605818004538       25.51846839324279       16.35536386721789
H           20.79257750906043       24.78702945203756       15.46131341988743
H           20.29753651359972       25.51153731398085       19.67721425821796
H           21.50088859647128       26.39144140136810       18.74393629352816
H           19.78143984088875       26.66508328416852       18.44366783257839
H           25.35424231430427       20.87909853824985       16.80493037666750
H           24.36765753836173       20.00689572185357       17.97485892806464
H           23.98234591219669       18.17578035639523       16.33385312424811
H           25.73400413347339       18.42580290085866       16.55523963124788
H           26.87290134106162       16.24009128193306        9.67271510662386
H           28.40042761855005       17.11787250565829        9.87581245432020
H           27.17758386225265       17.13801221084731       11.16511059982756
H           26.36501895697007       19.16317660353302        7.62328413574080
H           27.95851781001559       18.38878752579165        7.81323977016963
H           26.49535283691297       17.40566252975473        7.64757490483149
H           25.89833484142029       21.46255771815790       10.36714037659178
H           26.41895146208060       21.07438667397451        8.72996844856080
H           25.00602272804260       20.25767283973278        9.42827526947528
H           28.99512022912712       19.32919912477637       10.75508372335720
H           28.73144323357393       20.10021683361031        9.17886533864884
H           28.44070098964277       21.00111108327703       10.67248688172700
H           24.03183880233615       19.87432817804668       13.07748604602276
H           22.97601419358175       19.01440432220437       14.22709197101505
H           22.52157913910551       21.41612821923349       14.36810479279481
H           24.23243753623887       21.77230047139213       14.67088754112379
H           20.63100434695064       21.12687256524505       16.06447831828957
H           19.67599236746340       22.44634574512131       16.71950595878812
H           20.64754944375297       22.70441046502551       15.26460063228049
H           21.84249129228189       19.39925658867034       19.51470198623522
H           20.95744752483428       18.71875224101217       20.87554464766893
H           20.32904081181970       17.71988273490881       18.67561286393055
H           18.12128710841274       19.20124183043893       20.18858063363916
H           18.80730305001195       17.59132906109676       20.56735366393379
H           16.75140546065231       17.98540180395704       16.99079071584632
H           16.91418212254484       19.43190136522201       18.01828185761642
H           18.57139458633012       19.53913912991893       16.19708858516157
H           19.20021650749359       17.92272912537866       16.64286850390612
H           22.64930926549519       21.06899805365036       23.75815682132542
H           21.38633003861024       21.95199698206648       24.66402482867717
H           21.60134062356915       19.66918094585181       25.61958911427545
H           21.40417041563663       18.95988861563424       24.01204247691624
H           19.31595289448935       20.56706058968875       25.56740494816503
H           19.25440110195279       18.83332787947664       25.19175057890843
H           14.19011275450232       14.73099970049851       18.44240762937842
H           16.09628018044387       15.98822565180431       17.56718511076875
H           16.77810804025011       17.78456091357144       21.40036311957038
