151
 energy: -221.322787288097 gnorm: 0.004087559314 xtb: 6.7.1 (edcfbbe)
C            9.93825254576828       16.95761289388850       21.25311374395042
N           10.27608035366021       14.83999944940353       23.09038008686228
O           10.67055895613034       14.86374667558395       20.19248482301322
C           11.04282307598288       15.91328805393021       21.08546687838679
N           14.24114492724138       14.97763743476267       20.96377363093806
O           16.06404720201387       19.84564787715105       23.30909066269404
C           10.52604686627567       15.25229825272794       18.84318052449318
N           18.66879798615060       22.02892530406536       22.39142338860765
O           26.98298385399706       17.52297477211023       13.29391234082422
C           11.34253074814594       15.23594574821480       22.40976343936443
N           19.77635629237584       22.68865559101432       22.92768447605933
O           24.92288357939739       21.42877396872669       17.22277678837161
C           10.43198328843267       14.23032068392654       24.25098707949445
N           22.03727687681213       21.54376333803806       20.41399679203816
O           20.86648339287326       23.30046388535416       19.66570979848381
C           11.67457947500737       13.97640548343110       24.81060257542323
N           22.71644684985763       21.31298378454230       17.62870376059433
O           21.77695645728086       18.62951005861247       20.27499340082774
C           12.79219508308340       14.38794903313510       24.10944689735217
N           24.91860966281770       18.00528024753935       14.10013712765079
O           22.00119793697584       23.04665070401255       22.82782314732199
C           12.64858979963325       15.03356395758058       22.88025865331630
N           25.05226331184180       20.79213733193137        9.31204876422619
O           16.07760070069288       21.49117239242446       21.79186674958182
C           13.86687680927597       15.47505358420240       22.19248165076541
N           19.26446737083364       17.29597837287975       20.53958604731379
C           13.66045469824061       13.84032952265292       20.29531523039182
C           14.32965458130232       12.53724557412047       20.73049948618173
C           14.82257386333047       16.35038441918150       22.66412732980126
C           14.79334289605907       17.13586768630843       23.93642150040973
C           14.08912862554790       18.50839726892438       23.83940877525130
C           14.11096284491035       19.17721205201902       25.21549677361780
C           12.64205546898763       18.34114265202619       23.37862930570527
C           14.79051710105733       19.40448554443853       22.81407498333728
C           16.57944353895505       20.90828146295570       22.72984414808402
C           17.85377154486572       21.37893000616346       23.40666838346520
C           21.00710809030406       22.43885703338095       22.45169018460718
C           21.06412181006275       21.28060739072878       21.44982377059932
C           21.81381134699802       22.53188706781040       19.54011012131559
C           22.81431113038642       22.56651928169059       18.38146893601218
C           22.70391017433970       23.79204072525811       17.44730405274795
C           22.92406543328840       25.07651228249954       18.24376351477580
C           21.38494975963624       23.85280458266450       16.68112117597559
C           23.85150817141852       20.83085811936730       17.11058071839061
C           23.84078329257220       19.53125834034682       16.28601771130617
C           25.20405537735980       18.84073094330164       16.37688933573163
C           25.25413882221137       17.62385574997559       15.45344394968119
C           25.84669704749864       17.96950697261788       13.12619393347026
C           25.41867683771576       18.46726165251193       11.84378716513084
C           25.20700244136898       18.89279792750990       10.73737253488177
C           24.81811404295354       19.34608060243646        9.40424638940124
C           24.52072507138822       21.57123021137932       10.41019261465480
C           24.68011823730541       21.39096322264727        8.04667853732878
C           25.72823765062450       18.60679634404766        8.40822577755745
C           23.34982415170300       18.91863662413719        9.18958040126823
C           23.60882737657396       18.59418428122324       13.96550382568859
C           23.50717302790451       19.85783260157793       14.82524395057803
C           21.41520290175073       20.67497215688529       17.55391742995984
C           21.38201722662843       19.99787627035934       22.21677366299216
C           21.02034451004513       18.71261861954750       21.47133202446187
C           19.52251448278350       18.58511277588867       21.15954002227067
C           20.07559928693775       17.14101025144161       19.34400304157282
C           21.55331776949890       17.37440965055739       19.66972385470730
C           19.51315717538153       23.66673972620882       23.97046222105499
C           18.74568179060400       22.98463413284076       25.10421749807209
C           17.47513379125711       22.33830956524255       24.55239031754165
C           15.86620260107048       16.37481343855945       21.68803846984381
C           15.46709690107977       15.50212536303732       20.65093441759242
C           16.28128820820726       15.31365496435865       19.54447763041619
C           17.49509425013155       15.96205434378136       19.50132393476994
C           17.95684859015093       16.78502089419776       20.55127181177917
C           17.11263639847670       16.99958510752678       21.63532515283404
F           22.89282780297029       18.62503945299153       16.77106547417866
H            9.80691603668352       17.52785890737296       20.33762820955765
H            9.01154792061380       16.45145702280536       21.50641491510876
H           10.19914638126761       17.63821887083910       22.05679586253384
H           11.95747492134206       16.39382548864681       20.69897315165443
H           11.41453231665885       15.79041956699989       18.49525688620821
H           10.41284963092347       14.32764938476400       18.28228725582827
H            9.64199061127189       15.87681989325013       18.69330727751715
H            9.51743871778584       13.93821486744394       24.74874911443752
H           11.76297433835869       13.47210354293260       25.75903017423242
H           13.78379613925290       14.20179912143750       24.49625971542142
H           12.59280780417584       13.79918690785004       20.51754555790430
H           13.78308426791723       13.98061075534811       19.21804128550084
H           14.16547437188909       12.36694421839046       21.79188312138844
H           13.90928844303130       11.70460883732516       20.17466512911086
H           15.40057965685306       12.58194226084262       20.54702244516020
H           14.28123655400721       16.56185034519730       24.70985327004481
H           15.82117467792171       17.30614106422327       24.26051875607463
H           13.54856446184654       18.57965073266476       25.92782819389507
H           15.13134805330713       19.27876334260121       25.57432785268535
H           13.66009187092087       20.16544936891932       25.16364498765024
H           12.12395811102924       19.29703537566398       23.39916533470653
H           12.61192626057583       17.95434932995915       22.36455670390082
H           12.11574027807108       17.64811377149036       24.02981854097363
H           14.18762042632063       20.29286015574282       22.59889916998969
H           14.95289724432965       18.86727426685686       21.87460041598616
H           18.40461321867189       20.52204907014919       23.80463993855190
H           18.08689070805298       22.67695871969060       21.85854766728242
H           20.07596097140417       21.22402440893185       20.98367079667745
H           22.79997895159878       20.89358216922686       20.30263764953458
H           23.82285226235674       22.59188168703790       18.81530312682352
H           23.52417844852275       23.68869783518059       16.72583202827105
H           23.87471410590810       25.04500812047561       18.77093051654197
H           22.92761923862644       25.93204245647582       17.57380374840828
H           22.12755074420627       25.20778790653563       18.97149119153886
H           21.27003016604008       22.99081645168578       16.03015059869963
H           20.55087045525808       23.89897573449590       17.37622422562197
H           21.36633753918714       24.74777394867208       16.06485999034086
H           25.97119383921395       19.56496769227412       16.10361964056639
H           25.37997993953030       18.53020831663331       17.40740847686467
H           24.53896572757169       16.86877614975728       15.79406791318215
H           26.25771466908159       17.19565000381912       15.44493578692372
H           24.81254856721764       21.12161128694255       11.35732587213250
H           24.95264940613377       22.57023172802702       10.35583809467026
H           23.42398904581231       21.67037704351937       10.38376219435594
H           25.13979413857990       22.37777497624655        7.99620905259186
H           25.06023882673743       20.79830714802233        7.22056753188438
H           23.59244700502865       21.51433638495126        7.93295028013276
H           25.33889875251350       18.67569227274730        7.39639093519021
H           26.72663144210991       19.03434636351768        8.44062273948466
H           25.78825115034909       17.55624662887442        8.68103278989438
H           22.69598760884946       19.41844722404485        9.90217754245543
H           23.03148652046741       19.16589451867784        8.17996592329875
H           23.25940546203488       17.84447792297889        9.33125060649363
H           23.42485910705779       18.83402894993577       12.91834409212459
H           22.86522165863246       17.86625271221305       14.30631227376034
H           22.50193786405783       20.27157051898655       14.74795114947137
H           24.22042626685564       20.60800639644284       14.48161407925605
H           21.34926852653014       19.85981112406074       18.27659066068611
H           20.65357976656934       21.41408584636956       17.78591391139017
H           21.22592640039044       20.28437359647574       16.55735765908477
H           22.44878545525241       19.98781698432954       22.44585524337599
H           20.83553264132781       20.00694459339643       23.15898662786360
H           21.29855917693769       17.85814920974766       22.11235942496918
H           19.21097560311980       19.40106722258922       20.48889719484732
H           18.97238033815238       18.67427069063488       22.09139285496934
H           19.99353668566372       16.12304266247238       18.96980495603457
H           19.76197768139918       17.84676368191830       18.55788747441857
H           22.14310878656067       17.36331087232464       18.75333448771956
H           21.90529929368582       16.58090907200932       20.34385668978929
H           20.47645076191035       24.05148421574944       24.30411148585742
H           18.92286102311355       24.48745897855336       23.54938566903413
H           18.48906225179955       23.72193274044430       25.86309360560279
H           19.37936944139027       22.22303371160607       25.56013148467621
H           16.80921500896764       23.10941954037959       24.15816155384484
H           16.94907981756764       21.78846234005356       25.33178862392672
H           15.98362051410379       14.67660518621051       18.72550004495222
H           18.09528891065290       15.81664480539340       18.61977205502362
H           17.40450606455828       17.62637103996659       22.46221080210014
