151
 energy: -221.321937890113 gnorm: 0.009594795297 xtb: 6.7.1 (edcfbbe)
C            9.71176699459989       17.33516026682843       21.87495923745375
N           10.14146337247778       15.26637926912047       23.75671139473190
O           10.07833686135859       15.11130989945058       20.86718143654106
C           10.67283390673795       16.17910889860384       21.60508769977805
N           13.80740416472607       14.96620583713001       21.10092775064696
O           16.45248643504051       19.67368248512691       23.15952254292360
C            9.54386207599859       15.45862997329880       19.60691086444604
N           18.89878670597059       21.82621701835836       22.86916263111698
O           27.33574297010344       18.50654291992048       13.75731486606094
C           11.12038427592701       15.54131072012180       22.90702437958533
N           20.24315883999109       22.10953550991730       23.12727161426495
O           24.20142755758503       22.01106231511670       17.52073362673459
C           10.41804602099483       14.67231379588991       24.90303034333893
N           21.23938270062247       21.29220363765237       19.85930518866580
O           20.75578046510513       23.44079180801536       20.29121500425595
C           11.70229419126252       14.30475613299116       25.27114477773964
N           21.97484196416577       21.75253107885599       17.32153901747836
O           21.14293379530481       18.55679051389131       19.22172527394815
C           12.73168065497759       14.59976274061029       24.39769004956277
N           25.13904872435564       18.84408626730299       14.21710055161940
O           22.38852996314073       22.04658883585354       22.45147241789503
C           12.45983595754988       15.23550124900999       23.18557200782206
N           26.51054310588102       18.66629413375852        8.71422669557717
O           16.12155415416788       21.83270698507434       23.68201346914743
C           13.59833770922381       15.56633506398176       22.32190287421932
N           18.77795505100529       17.09679867423176       19.86698753273184
C           13.04294077876362       13.86913812872799       20.55855003678600
C           13.57579481602415       12.52099123493810       21.04307229078449
C           14.64599178087663       16.41087184775668       22.62571997851708
C           14.83424556300983       17.20442703812756       23.88040693606662
C           14.31053774253715       18.65693371967666       23.84650568182041
C           14.48908057318494       19.28260319931923       25.23270131253721
C           12.83109401205260       18.67640893266937       23.46179503093644
C           15.07242849623633       19.48710881569066       22.80297673507220
C           16.83696255062184       20.86019209855911       23.57049762815113
C           18.33044653891388       20.91495904464223       23.86956258747813
C           21.21484020466835       21.74819027392098       22.27100152808356
C           20.76507828510505       20.82042759545019       21.14090876833318
C           21.19922588596234       22.58655269651368       19.53081356092423
C           21.77486820335250       22.93493601445849       18.15555557235743
C           21.01832959828093       24.06926813707224       17.41651418866108
C           21.58675105704739       25.42235307787134       17.84876840649547
C           19.50457842410069       24.07171384355916       17.62858268073785
C           23.23960777945846       21.37412926999975       17.08772533815234
C           23.54604173464555       20.14760562719253       16.20726302787513
C           24.93589864062274       19.59896363640230       16.53305360574826
C           25.26797217514458       18.43771318237380       15.59778098682851
C           26.20602143436123       18.85433633725830       13.40363195823334
C           25.95911019754958       19.24755714543964       12.04059790732148
C           25.97300257938992       19.48566565292406       10.86027617526209
C           25.89084984522759       19.78450886099521        9.43468804469259
C           27.82635102933373       18.28579469339821        9.18617415965675
C           26.51643396506959       18.79174756795489        7.27126552010958
C           24.39858920380659       19.87182003578456        9.06820715720233
C           26.56647232362750       21.15622677445563        9.21559897434451
C           23.82785700626501       19.32482968181838       13.85398515771628
C           23.45477412273319       20.52790910734376       14.72601446470254
C           20.76923582057105       21.17070204184576       16.76064531721908
C           21.34865359067406       19.43875751906561       21.44991280298690
C           20.80769961952891       18.30351143130030       20.57494718029114
C           19.29659563681561       18.10539510067907       20.77158415850550
C           19.13370431898867       17.42350239224418       18.49835334190419
C           20.65349076990540       17.51489172830830       18.40153781871147
C           20.52920077744854       22.70204113316048       24.42205234760597
C           20.04888565397637       21.73202252485136       25.50338606635285
C           18.56728755447128       21.41521772062704       25.30142166033103
C           15.56122329815565       16.32002132479071       21.53500829939195
C           15.01993873655176       15.38645180300822       20.62310107259272
C           15.72844537320109       15.02932283013599       19.48298521166080
C           16.95422629613245       15.61232882097612       19.26319016982190
C           17.50300581949205       16.57812224327720       20.13462863729747
C           16.79105356160818       16.92546215685286       21.27423870517563
F           22.64976400201302       19.10112756690067       16.45700926976408
H            9.45191567769931       17.84306246267117       20.94940896167025
H            8.81319232272689       16.95192888846119       22.35033096514329
H           10.18731841846051       18.04801319899177       22.54140885455451
H           11.54925365828853       16.55117643769280       21.04788705784187
H            8.63099923395203       16.05226557559246       19.70604257691969
H           10.27945365547418       16.00809468860598       19.00677650398493
H            9.30504490832574       14.51362005079360       19.11855551668356
H            9.56914016349133       14.48609152545358       25.54560726152526
H           11.88936130533511       13.80358751382328       26.20744709488297
H           13.75026538465560       14.33002107845737       24.63405975691903
H           11.99735185934583       13.98028225389303       20.85450061083961
H           13.10237162536380       13.92409051523228       19.46820591483791
H           13.45367167938520       12.43284398519040       22.12006791766261
H           13.02882671986337       11.71510613493771       20.56318733169904
H           14.63301439097446       12.42390551986521       20.80476209938623
H           14.32260893923544       16.69688078151868       24.69943708845031
H           15.90169962170999       17.23341579450019       24.11091506580206
H           13.83609479273783       18.79645984142928       25.95201482105527
H           15.51628477312458       19.17763841826397       25.57707626683474
H           14.24572364073175       20.34302396413945       25.20661255053480
H           12.43454131563685       19.68671443090952       23.51858233804726
H           12.70328722559656       18.30486205883160       22.44970108800925
H           12.26424734190098       18.04143385746198       24.13831667013293
H           14.61152562647261       20.47358935088789       22.69955063585396
H           15.07811724877672       18.97265299762391       21.84125688637817
H           18.77653627882588       19.92822160660377       23.71306848579631
H           18.37001270563273       22.70081031314046       22.88101297165487
H           19.67119495317941       20.81316092614344       21.14521962945159
H           21.63177368780710       20.58916453668716       19.24888746761134
H           22.78543283413445       23.30802040689767       18.37214266015661
H           21.23251899683673       23.94499904172103       16.34978314906538
H           22.64079779893824       25.49491363122590       17.60022844388211
H           21.05837752062047       26.22676588983330       17.34566072215711
H           21.47177729444204       25.54780467610484       18.92144534907260
H           19.03671752525477       23.14777071285381       17.30757916283210
H           19.28047503916246       24.22806660132733       18.68007874321036
H           19.06734995039795       24.88996076847391       17.06239532315087
H           25.66324936410771       20.40272555452629       16.43340536649690
H           24.94800187492782       19.25452944970505       17.56735015914894
H           24.58101479770449       17.60653438115152       15.78412335310152
H           26.29375376639670       18.10124000299203       15.75558660490867
H           28.06780655957268       17.31550686543680        8.75724352488049
H           28.61503997792604       18.99839160167997        8.89627204895834
H           27.82543064130191       18.19230002638005       10.27095165503707
H           26.81780723253325       17.83045282399393        6.86023973743895
H           25.52254344261318       19.01821437528115        6.90462683575965
H           27.22175776599146       19.55187882520371        6.90425304829159
H           24.26196019561802       20.33833604789365        8.10226239326962
H           23.97605486070621       18.87476555938039        9.04598625298523
H           23.87254152765173       20.46136231881006        9.81077683185833
H           27.61119843355953       21.12060299852832        9.51402637612683
H           26.50310346217253       21.44321351504117        8.16891267715474
H           26.06291783238616       21.90953235827070        9.81582026863878
H           23.82688582451817       19.60682163870334       12.80060317430828
H           23.10312935590391       18.52014591308637       14.01233294602605
H           22.45125252368974       20.86730899202727       14.48033977736592
H           24.15790108099299       21.34260655934043       14.55407301080590
H           20.40756580102322       21.79039874018802       15.93914957962923
H           20.93165630286574       20.16491670632946       16.40220349321483
H           20.01259186732688       21.13361664479313       17.54120281056266
H           22.43118031701475       19.50127903724573       21.32703744737359
H           21.14142527359768       19.19376279828668       22.49204883357607
H           21.30903320075258       17.36978298539836       20.88077813460745
H           18.77310156110319       19.06262059245869       20.62383251205953
H           19.15189214957950       17.77388716241050       21.79876432169162
H           18.78351811014102       16.65841462342058       17.81228510572201
H           18.69830228336244       18.39225704707844       18.20202980552467
H           20.97248755898847       17.74413787945257       17.38761026880853
H           21.09730370984386       16.56106337425611       18.71862062536919
H           21.60547579845051       22.86616757708165       24.47514444428464
H           20.01116170248616       23.66373381828979       24.50049166987785
H           20.20865897972645       22.17109139919286       26.48689840844068
H           20.63359339242773       20.81186864644057       25.43490613543500
H           17.96560460980306       22.31425937227026       25.45415039392423
H           18.24133828363513       20.65951392633015       26.01555445378853
H           15.34432147028751       14.29690480664559       18.78961882624493
H           17.51624337779211       15.29376985235014       18.40064403967526
H           17.15903861927119       17.65243012602934       21.97684399447042
