151
 energy: -221.320463177256 gnorm: 0.004271834690 xtb: 6.7.1 (edcfbbe)
C            9.61706977419377       17.14656823243241       23.40301728828559
N           10.43430333668226       14.65580596416194       24.41591194502913
O            9.86209138908482       15.51589154779621       21.58508051757132
C           10.55288833024007       16.24409163353497       22.59932308841412
N           13.30751216693814       15.12033071932178       21.01624846143530
O           16.59788305005306       19.38078019504323       23.29910452475194
C            9.56129008580346       16.26827235409712       20.43021271892710
N           19.24111934951377       21.44227597130996       22.63980204687098
O           27.44507460006718       18.45201042986221       14.57676678202538
C           11.21192992141875       15.21786986406794       23.50162321820779
N           20.63580330059396       21.44163506356358       22.74330668293650
O           23.94121752210818       22.53294799781008       17.75688671528406
C           10.94402657732287       13.75054832472420       25.23156591478507
N           20.84293112715041       21.41635644522951       19.35319491779751
O           21.40413633270774       23.25448158468825       20.51777712330553
C           12.27361190695039       13.35976843635280       25.19755989679063
N           21.80101505816538       22.42290126542621       17.06161672420847
O           19.98280480723615       19.12600002961745       18.00040100906969
C           13.09269723718106       13.94154648426926       24.24776326705754
N           25.30456334077483       19.20222405555814       14.65500845888411
O           22.62414835767683       20.94203708611701       21.80162626036929
C           12.56611662332877       14.88456293875180       23.36575345012133
N           26.78629960645420       18.33373224846580        9.33260309394714
O           16.54366308580672       21.61686633912904       23.49938519190779
C           13.44936348827161       15.45783668305334       22.34309849240067
N           17.80956917006137       17.55715135677094       18.92141084738110
C           12.44580961273305       14.09199533380254       20.48883728717713
C           13.11933930257869       12.72119142372287       20.53532233692451
C           14.53834169879529       16.28403201138149       22.51465596109011
C           15.06900501829851       16.82063260766204       23.80697891542540
C           14.61970935928562       18.24695576097949       24.19878017345033
C           15.14260749356945       18.55537918348529       25.60484263071152
C           13.09625696891665       18.35648522467824       24.18458231567502
C           15.16701455313095       19.28826002438835       23.21292721693337
C           17.14790882227384       20.56758848501596       23.45144629407787
C           18.66009696008686       20.47395515456116       23.57063908333488
C           21.40459882556404       21.03055318100354       21.71913289999634
C           20.62493610811061       20.54730965254844       20.49199088908444
C           21.24160241983691       22.68334870114667       19.44259123693951
C           21.46774800581815       23.40124953589966       18.10034849112996
C           20.30527531386489       24.35436830618324       17.76068356810562
C           20.58935269398063       25.10416468627610       16.45910653352067
C           20.09859510727404       25.36952855402265       18.88398021432868
C           23.07164115807588       21.98359301969483       17.08019664245898
C           23.47871443317372       20.75042907805846       16.24506740532250
C           24.74163543672448       20.12802608265917       16.84818025777658
C           25.14610922922337       18.88619723073753       16.05598135794675
C           26.46013616749905       18.94669875685793       14.02131607659226
C           26.48937439485832       19.25480204130075       12.61449931176082
C           26.65231097120459       19.40685412349649       11.43139493847077
C           26.80349731667476       19.64341357066784        9.99738299589364
C           27.77938659472893       17.40086624025552        9.82681342505966
C           26.81487142722179       18.37911600533487        7.88561459455019
C           25.59532464779589       20.48259132044513        9.54537411701529
C           28.10291190501848       20.45110579725423        9.79804662402768
C           24.14039762681519       19.78608855411549       14.03347801813323
C           23.72555454855658       21.06584039530168       14.76776428820410
C           20.76115474060042       21.87090940784624       16.20497197027419
C           21.06783274755407       19.12222428853003       20.13918515573792
C           20.09264992538874       18.39323008354869       19.20954316384672
C           18.72100252652860       18.17001345984427       19.86602883999660
C           17.71099238108489       18.35952171003656       17.71405969814706
C           19.10031148852506       18.48140544657898       17.10030515628964
C           21.17146754484680       21.78453691344757       24.04693726421378
C           20.62546043681066       20.79744309380817       25.08212553684546
C           19.09745019749960       20.75495203866012       25.01782071283834
C           15.12334110530497       16.44539066364893       21.22189905904683
C           14.33754396151594       15.69160941809313       20.32142365845867
C           14.68552586246834       15.59634524736635       18.97894393732251
C           15.82192928776759       16.24114690696636       18.55609631280785
C           16.62356567301626       17.00319345361872       19.43098278935596
C           16.26276743892111       17.11144712065362       20.76425365992010
F           22.47617282877672       19.77736505443379       16.33328276307227
H            9.15968808054931       17.89369024084812       22.76066616868009
H            8.84488400737420       16.53482106260580       23.85822723673607
H           10.17998189549249       17.65141843820127       24.18173205905951
H           11.33863363278437       16.84721720788484       22.11683892032758
H            9.11971309582929       15.56795681158359       19.72565386213322
H            8.84853164790873       17.06962144759676       20.64061731311723
H           10.47272069438959       16.70068537101351       20.00069162381049
H           10.25007500805424       13.32631296740832       25.94407393387280
H           12.65062603095409       12.62028239868966       25.88512415746266
H           14.13440971763690       13.66581840536772       24.16687066045757
H           11.51758687169702       14.07389090878179       21.06345312749739
H           12.20466642047848       14.35307541389635       19.45556282686026
H           13.29685429259927       12.42185602573749       21.56557221361402
H           12.48052065910671       11.98077819675280       20.06314177391243
H           14.07234108331186       12.75162000975843       20.01237495053423
H           14.76079951590447       16.15221804185305       24.61361496820189
H           16.15995093821077       16.81633002410156       23.75729725798561
H           14.66191101112735       17.90894891989110       26.33399282645832
H           16.21721764925115       18.39660675953965       25.65738303528068
H           14.93378556563927       19.58992184675985       25.87041595878751
H           12.77953827035410       19.31804066974864       24.58090759828935
H           12.71980321777036       18.26077452199229       23.17038480042458
H           12.65963677573329       17.56786475848031       24.79191526278933
H           14.74743400900446       20.27588592077779       23.42725587683449
H           14.92202474661023       19.00614820514144       22.18637847071946
H           18.98621188580421       19.47640460295430       23.25985267004681
H           18.87890007939791       22.37328876459605       22.85014839688531
H           19.56268027644605       20.57607104166520       20.75188159726341
H           20.69005555331756       20.95431517312973       18.46600566529322
H           22.36760659914736       24.01216651868803       18.25006093965594
H           19.37754666298049       23.78050166383487       17.67292769362447
H           21.44071792593711       25.76625392928575       16.59661071357084
H           20.81328930105934       24.43073885594459       15.63962853891481
H           19.72633451143690       25.70620355579705       16.18836559834933
H           19.85875684018972       24.87933191990422       19.82334942969666
H           21.00038063931405       25.95692013125809       19.03932425148082
H           19.28403022078940       26.04022687385617       18.62390055790409
H           25.53423421916631       20.87475135549360       16.83916865677272
H           24.54893754008797       19.85916906034382       17.88769385829214
H           24.37218104632394       18.11760019556632       16.16220417102317
H           26.09537382933122       18.49174359358621       16.42239341679234
H           27.49638373110665       16.40021399005836        9.50582684111204
H           28.79204622772186       17.60839593722318        9.45031306457065
H           27.80163196003004       17.42225117779699       10.91407776446215
H           26.02409090050485       19.02198907405482        7.51251109000202
H           27.78011703571689       18.71896145709139        7.48027952541271
H           26.63479534837882       17.36905000171805        7.51909271425702
H           24.71672412276109       19.84975602322432        9.47578230880324
H           25.40819171883426       21.26739541724548       10.27301576101274
H           25.78854788082445       20.94726580204188        8.58363065164899
H           28.95708288109283       19.90901921348072       10.19662263472108
H           28.26362392631219       20.64552182229196        8.74064521688302
H           28.02539102092619       21.40049596144731       10.32103140684696
H           24.36209721226870       20.00187602328892       12.98891061668346
H           23.31691556287036       19.06536270050278       14.08577563705529
H           22.82961447059906       21.46309439864919       14.29594764176266
H           24.51574970272856       21.81427818790062       14.71352124910522
H           21.03427334309966       21.99996174620046       15.15861248810252
H           20.59465305182639       20.81364459300068       16.39567673934359
H           19.83402528381943       22.40062526053806       16.38180597913585
H           22.04502589391535       19.18266031620316       19.65781766007099
H           21.18286485469065       18.54288927376886       21.05423291242041
H           20.51281435694451       17.40158727445721       18.97216270196083
H           18.32092576432469       19.12821573022998       20.23486100491063
H           18.86208215808345       17.49385903989808       20.70999518221672
H           17.03708822074443       17.88996096202396       17.00286596143573
H           17.33349836020603       19.36943145072746       17.94747760182703
H           19.07878296361969       19.09324639845725       16.19853330199480
H           19.48912930766308       17.48234904152647       16.85918754556215
H           22.25775733439342       21.73850136349105       23.97670958478741
H           20.87017754709107       22.80905009414351       24.28919679757291
H           20.95007473891004       21.09725800197660       26.07708469119521
H           21.02891963606339       19.80599352162390       24.86921261998548
H           18.67964686071933       21.71661931601033       25.32581054228609
H           18.71039086275573       19.98139693164341       25.68069176063684
H           14.10041963864922       15.01426473189833       18.28383457638488
H           16.12529165602843       16.13327304373411       17.52685853864480
H           16.84636768139132       17.68510330908770       21.46500422880956
