151
 energy: -221.328396222550 gnorm: 0.009672880961 xtb: 6.7.1 (edcfbbe)
C           10.44015063103479       15.42377006867371       24.06432717676245
N           11.98721382496575       13.13042868167352       23.51585282935445
O           10.31490192921236       14.69865115595290       21.70859916019356
C           11.15631217529495       15.24001561135519       22.72537559384446
N           13.53798386444167       15.92433442878013       20.33988716945850
O           16.73159406973721       19.51310147876724       23.79431124940913
C            9.15152761786793       15.45497643460040       21.43091357085510
N           18.85122888102051       22.00840648895391       23.33753353168379
O           26.93282066540588       17.29061208349664       14.80358621073278
C           12.29568002503850       14.25127541342311       22.87685404332300
N           20.19684000779132       22.38796610644983       23.41395536720281
O           23.85912348205404       21.33999871907281       18.17797399266321
C           12.90645560504450       12.19840110348640       23.68157423190327
N           21.19573541229115       22.25595920054628       19.93881971889682
O           19.61880183898860       23.21759506651370       18.63911754417929
C           14.21303604786846       12.33799084798360       23.23897314368644
N           22.00192534451634       21.87428709825876       17.03349047856495
O           19.82082290638087       19.68289598188990       18.76724221791772
C           14.54557818557416       13.50436757945302       22.57879231825991
N           24.76846167617799       17.96952944913712       14.88497686687242
O           22.19090797504342       22.60144681814550       22.39391011736655
C           13.57725481732320       14.48897752350045       22.36751274142043
N           26.67595200480432       19.52528946666614        9.80855843349635
O           16.23341595673267       21.55867309574503       24.57158515741962
C           13.99143375087372       15.67931255657964       21.61498683771173
N           16.97456374718833       20.00016481176739       18.85335067989312
C           12.67743046466914       15.06528128687930       19.56439120301692
C           13.48104116542149       13.98090267989792       18.84550188382519
C           14.97536455744349       16.58524759059650       21.95328663207833
C           15.71809427139365       16.67166536029178       23.24846800264283
C           15.15507690279702       17.69336250985182       24.26228639647680
C           15.88279553303142       17.51825779021019       25.59893040796797
C           13.65725634020423       17.46996885103754       24.46762423871394
C           15.34370230650414       19.13309525527394       23.76233515075107
C           17.03488394111985       20.71371983612508       24.23584414488203
C           18.53893323494885       20.94379431851485       24.29686205835072
C           21.00004405424979       22.31655334945433       22.34268506698741
C           20.33450665327276       21.87655618867665       21.03438104770404
C           20.78258115141319       22.88951018649679       18.83896179380172
C           21.90116328892544       23.11267676928696       17.80904725007206
C           21.67811663233091       24.35008536301335       16.92864578931500
C           22.75658943557719       24.44485296583663       15.85043563293680
C           21.71546134259266       25.59740462166572       17.81140034436573
C           23.02235356966533       21.05810883538403       17.31709933635098
C           23.21110415683952       19.75703080595003       16.51312788717646
C           24.38462200117844       18.96313205022400       17.09128560273949
C           24.62110349946904       17.68186804921539       16.29334484526277
C           25.93247750484513       17.74652150157553       14.24904570627186
C           25.92041435913030       18.02840916592244       12.83612320174841
C           26.03163523635702       18.16189155630850       11.64466044434733
C           25.99738291888341       18.28165391851799       10.18827582433464
C           26.14960636390769       20.71225768831691       10.45322643580742
C           26.80349307788459       19.74030340570984        8.38232374439710
C           26.77212513414103       17.07022470301871        9.64165215178318
C           24.51728032841039       18.19324234412550        9.75459122258666
C           23.64419888408862       18.66535936597536       14.30727610014935
C           23.44821230962390       20.00701319317353       15.02032853221683
C           20.88813094286084       21.61083962624823       16.14815909126235
C           20.10848473327730       20.35708115461663       21.06854904945245
C           19.14893518616976       19.79831971517827       20.01714346186233
C           17.85314478765826       20.60880519322758       19.83359940640324
C           17.69276214568833       19.84577082159048       17.59906591921253
C           18.97811586429143       19.04149968142454       17.82923306949241
C           20.67947547533264       22.80936828732661       24.71996504936979
C           20.43001456353664       21.70120859708425       25.74201412301936
C           18.95123462536765       21.31881046907172       25.72979000622309
C           15.17058544857965       17.41178823523335       20.80717704640756
C           14.26483532245452       16.96160374553096       19.82187125753297
C           14.22898588730598       17.55860187265324       18.56603120510598
C           15.13095492673517       18.55801328174376       18.29952210291876
C           16.10043137039388       18.97514287155213       19.24060876035898
C           16.09543671691694       18.41741078524768       20.50760182088736
F           22.05917215926717       18.96548368957340       16.65480881473813
H           11.16703474447173       15.67691481262475       24.82912453217408
H            9.70732045439633       16.22215618143021       24.00315966753338
H            9.95116987449406       14.49367681359243       24.33784982604247
H           11.55003579719725       16.20986159571570       22.37659174162521
H            8.41271728486093       15.35969122062952       22.23125112197275
H            9.40250790664645       16.51195798327787       21.28200796550055
H            8.74190909174266       15.03992122130700       20.51229315103672
H           12.57724329293196       11.30553688108032       24.19732106625179
H           14.93991554537411       11.55911685092219       23.39840415471495
H           15.54464139638246       13.66054073771491       22.19449536749037
H           11.93995342752883       14.60366211822545       20.22362982448395
H           12.14840271584364       15.68521899627395       18.83693745677694
H           12.81862795223323       13.36551023287740       18.24530373645452
H           14.23102682428132       14.43174826353584       18.19929186223707
H           13.98370135538533       13.34650670755486       19.57149823864110
H           15.70341927088047       15.69141618839988       23.72933011504615
H           16.75691663256389       16.93500726195249       23.04135927548123
H           15.65992010471914       16.54078442119138       26.01920976107236
H           16.95882149098146       17.60062890333134       25.46490139779463
H           15.56220942520819       18.27884215149591       26.30786474084053
H           13.47582902002296       16.43686595558514       24.75459175506828
H           13.28084079501663       18.12281997974298       25.25015675235872
H           13.11036784758440       17.67639517294971       23.55066161996576
H           14.78876602423211       19.83397941800229       24.39354542125540
H           14.99419411350195       19.23117820386753       22.73215688982533
H           19.05449424276228       20.03070764911870       23.98563365107611
H           18.25531392472161       22.81111526127994       23.54936870438766
H           19.38830237436574       22.40790995173755       20.92308713011240
H           22.18197840956112       22.04774635131347       20.06609532931237
H           22.85379783284728       23.22380843692925       18.33717690896871
H           20.68851670155377       24.28644586974298       16.46827575013288
H           23.74455714067022       24.43771208865924       16.30777853696699
H           22.70613913490178       23.61682467382878       15.14876062937695
H           22.63982316306443       25.37177541886285       15.29628805233463
H           20.94299203124478       25.54761123172946       18.57549508726343
H           22.68324466771202       25.69052921629530       18.30016847991347
H           21.54548522401977       26.48506960717208       17.20752260640989
H           25.26967606425600       19.59858467539986       17.06731432721601
H           24.17613431118897       18.71954688331059       18.13292622452775
H           23.76861309467756       17.00586486701059       16.42200994242694
H           25.53169910852946       17.18651096186856       16.63562979065437
H           26.01757606501967       20.52308775018837       11.51678392032841
H           26.87701073361718       21.51424844868339       10.33381650263727
H           25.19362791282460       21.05022787334122       10.02645493309449
H           27.27301290534228       18.88184571009358        7.91054258444165
H           25.84223213319909       19.94340901456365        7.88743206046040
H           27.44935164563936       20.60483299594638        8.23347022060947
H           26.49223713823050       16.17674069141212       10.19838766764993
H           26.54832048718860       16.90621658502675        8.59156762398379
H           27.83907363833656       17.23596532819424        9.76533677399960
H           23.95233431971006       19.03955946006562       10.13714811316286
H           24.44411844965460       18.17490974305649        8.67085332538612
H           24.08135233536071       17.27965296871194       10.14874726581589
H           23.82271740272500       18.82115406611355       13.24401055878869
H           22.74763294565341       18.05070651897199       14.43618093876317
H           22.61427875809840       20.53817500399231       14.57261728480069
H           24.34897690795921       20.61223738958181       14.92432350406014
H           20.78629552948596       20.55415626797657       15.94283074343104
H           19.97810951318203       21.94212045515375       16.64323711585343
H           20.99596967118181       22.16810266394716       15.21232074368294
H           21.07385527734563       19.86429729703001       20.93462612638243
H           19.71190527809332       20.09043796131179       22.04243044857596
H           18.87824170481403       18.77425037279703       20.33402489978494
H           18.11285210214433       21.59803850264779       19.44036491880323
H           17.33385210092271       20.73075995241131       20.78332575021734
H           17.07797721474763       19.33989817752753       16.85940787812626
H           17.94878932851495       20.84551141659448       17.23716369316003
H           19.56234161726444       18.92869107338491       16.91645908032310
H           18.71040421929840       18.03993181677992       18.20796170985898
H           21.74087703874025       23.03491264884633       24.61798307421266
H           20.14130349341060       23.71836507077886       25.00974223338031
H           20.72199634703738       22.05135405332373       26.73086604172351
H           21.03760766510408       20.83213855813686       25.48703727767247
H           18.33640159326730       22.15913536001544       26.06041579852781
H           18.76544586773531       20.47660178715388       26.39690550244979
H           13.51955015722100       17.25030123370613       17.81334595145114
H           15.09859084507726       19.05164014860509       17.34256045053971
H           16.80620262350314       18.71069741165725       21.26232004476667
