151
 energy: -221.321611265788 gnorm: 0.009025199812 xtb: 6.7.1 (edcfbbe)
C            9.78424041575300       17.03452983076637       21.38800635850923
N           10.15399809866165       14.93999753852237       23.23691320660341
O           10.53104757553990       14.94891777196744       20.31599806452808
C           10.89516371912179       15.99914366685724       21.21032351203860
N           14.09885418949182       14.90284888491225       21.06996137623777
O           16.10146975933973       19.81755547705320       23.15800695695565
C           10.38687769680230       15.34122010357950       18.96747265526519
N           18.69222230287190       22.03973591106900       22.59045164084462
O           27.56715901989969       18.37522884074369       13.36762460352950
C           11.20933434568698       15.32557830740990       22.53334460539501
N           19.89342347590860       22.51732629210106       23.11530595743449
O           24.80922999497408       21.79922382922816       17.23315376645282
C           10.32924115675422       14.33174313764693       24.39553585345922
N           21.85464460636808       21.49288419093324       20.34099684330349
O           20.37801543778397       22.93351146535672       19.45229427269605
C           11.58135809777806       14.07471281497249       24.93301989635010
N           22.62186491563701       21.38167281426097       17.51394088128917
O           21.56445313317632       18.61111605328602       19.98702638584836
C           12.68802035355420       14.47524190268810       24.20759618567588
N           25.43220412466687       18.40978952697048       14.13174070840369
O           22.13605967431869       22.64510933824688       22.94157511280038
C           12.52180785970542       15.11250243796782       22.97757639881283
N           25.33536432273920       20.70317790427572        8.99797102708539
O           15.94662191230328       21.91118509970600       22.36867728722195
C           13.72777681457265       15.51482385705227       22.24471329308049
N           19.08455358538135       17.24110251525179       20.35774793267080
C           13.48445778822524       13.72537135313448       20.51054026846354
C           14.00792250630651       12.45568109853207       21.18112855225486
C           14.68291038641302       16.43002845598480       22.63054449267126
C           14.68441413017561       17.26515978603421       23.87176469520466
C           14.03166702766665       18.65750187506321       23.73812792774443
C           14.07296504129521       19.36132034380687       25.09658038953028
C           12.58392253651199       18.52876709706872       23.27020954649635
C           14.78014013826767       19.49705150934778       22.69643350429556
C           16.55079765707409       21.03336367567892       22.94880020069171
C           17.92784794723089       21.25146761349270       23.55021612863023
C           21.06724440302165       22.18467926241949       22.55661904002775
C           20.98441549125546       21.13907023514615       21.43758766369740
C           21.47251549261674       22.38700552054315       19.41881531985761
C           22.51734048474049       22.60299025574116       18.31619474292006
C           22.30184248676231       23.85717527585419       17.43942664806506
C           22.31768312739822       25.10273240695648       18.32396001303067
C           21.02637267166758       23.81452218500827       16.60039658600640
C           23.83947282461252       21.05980650764429       17.06440216453827
C           24.05495048125127       19.75713785276325       16.26892852848950
C           25.51150101403220       19.30384262131890       16.40766326638102
C           25.80425363795592       18.11321789714532       15.49532265081930
C           26.36397435934562       18.54464016275092       13.17063715538395
C           25.85686780821826       18.85720625209178       11.85795239437480
C           25.56504181527893       19.08820759142865       10.71263642452512
C           25.13030310838501       19.28801344815465        9.33079160780357
C           24.55865300361220       21.61091601417461        9.82015187092624
C           25.20451481405197       21.03880519361721        7.59603230905019
C           26.02782387544905       18.38507267810767        8.46993613998087
C           23.66618989590861       18.80993963190588        9.21971942749930
C           24.03647170133440       18.73340165860793       13.97064279003777
C           23.69808258643884       19.97916216771398       14.79588757618735
C           21.40948576231147       20.60117264591948       17.35889945702289
C           21.37166038763850       19.79360248364827       22.06151279563424
C           20.95262082991380       18.55778651697071       21.26187958852525
C           19.42612632712985       18.40922705041071       21.15570045077578
C           19.73726512029453       17.31074791592225       19.06024415804835
C           21.24620250806472       17.44601492706591       19.25542177359101
C           19.80808251694134       23.29029324087542       24.34486082606186
C           19.12988892994625       22.42667697307304       25.41026505005927
C           17.76236881583396       21.97044871193539       24.90465242542292
C           15.71684552035161       16.37199504278166       21.64595190076361
C           15.32755564129393       15.38765859896796       20.71076129409000
C           16.17373962732533       15.04460725472514       19.66585314388375
C           17.38714403051802       15.68475577770521       19.56606859149174
C           17.80210059473859       16.68934090128698       20.46927560719463
C           16.93950304343773       17.03215738550476       21.50445344206377
F           23.25735190523471       18.72595221930395       16.77889205419450
H            9.61795012409148       17.58381347357008       20.46548890208627
H            8.87125579937070       16.52524436020979       21.68147786342455
H           10.06450117585666       17.73550525861182       22.16752930054627
H           11.80501448605651       16.48688998707066       20.81992763601457
H           11.26894075713403       15.89490455727126       18.62591831644110
H           10.29131200184358       14.41766236175176       18.40184839015779
H            9.49365270020292       15.95286879777115       18.81736603513809
H            9.42243320731182       14.04259652103404       24.90834145719469
H           11.68752520247645       13.57688046918954       25.88255210986854
H           13.68648928142168       14.28778015938423       24.57295141075135
H           12.40187180769399       13.79254655107265       20.63685234684834
H           13.70741879098941       13.70372618047588       19.44127683197057
H           13.73552034133042       12.44814245145350       22.23472637106751
H           13.57711986986397       11.57999767078095       20.70499739259061
H           15.09190929955201       12.40539806193365       21.10150004105406
H           14.15455510736826       16.73030634103616       24.66222712266354
H           15.71969684602615       17.40519427049318       24.18782730959509
H           13.46721935164686       18.81867459267236       25.81703435285193
H           15.09285154114291       19.41198438344894       25.47007183417898
H           13.68414167418985       20.37371447430024       25.01147568650871
H           12.09719421671010       19.50054896193336       23.26259091161219
H           12.55081895578756       18.11648080053626       22.26685955990237
H           12.03221236741163       17.86760113588887       23.93393691195874
H           14.25109612153084       20.43345195944404       22.49614743191727
H           14.88432414246334       18.93802863394494       21.76279169334045
H           18.43133690382090       20.29031179128987       23.68976972853149
H           18.11641803892315       22.81491718044204       22.25971504977282
H           19.96002571659164       21.13939483903878       21.05738164358881
H           22.80060479811715       21.14395157080459       20.35915555969527
H           23.49188247924744       22.73697645971543       18.80522515203456
H           23.16575145038921       23.89978281958140       16.76481274507126
H           23.21964778282459       25.13487455257378       18.93128563271147
H           22.28691802534615       25.99735484611108       17.70788987604523
H           21.45244880160013       25.10295799208037       18.98264136015412
H           21.09317626061776       23.05682167556085       15.82451826896401
H           20.16861692324707       23.61321214561322       17.23757161672687
H           20.87379437107951       24.78042017687132       16.12494888346393
H           26.15514621086572       20.14794134409286       16.16571304836121
H           25.69499379647670       19.02198304451000       17.44451672365352
H           25.22913630169042       17.24406211314044       15.83190763265111
H           26.86901934010845       17.87410173588870       15.51332638755395
H           24.63416621451436       21.30975876097667       10.86336756791717
H           24.97922748870892       22.61064242245081        9.71958656995556
H           23.49742706331509       21.65458955270868        9.53213959203996
H           25.43011530837729       22.09749836231320        7.48530784764301
H           25.92376245227753       20.47933596744154        7.00772243221711
H           24.19837000508427       20.86234621570344        7.19458822108596
H           25.64634919740448       18.31396262689726        7.45543732767627
H           27.04127251198585       18.77492086964986        8.45481410953556
H           26.04686898150270       17.38751087522878        8.90091763290582
H           23.02355593126405       19.36529742313323        9.89756585929512
H           23.31028656526198       18.94309742475459        8.20090538431482
H           23.61006478620559       17.75560740468492        9.47393054168433
H           23.82352575792543       18.91200086595716       12.91697439070697
H           23.44183083036968       17.88604022978680       14.32155450322318
H           22.64039367388716       20.21468401547884       14.68751308440981
H           24.28197177915631       20.83013310460892       14.44162014211969
H           20.56057541992314       21.28298746838923       17.32827208240461
H           21.42781611306276       20.02357193977141       16.43845381472332
H           21.29368337960454       19.92240136996365       18.20696948729172
H           22.45689852087826       19.78004700372941       22.18112596295433
H           20.92617140184233       19.72384913626868       23.05425400746014
H           21.33578512888281       17.66587846054913       21.78890167530463
H           18.99283454220587       19.32315902386060       20.70908912344223
H           19.04412786887173       18.28614693464018       22.16778448199129
H           19.55970082753258       16.40357392551295       18.48719514440987
H           19.36607526985179       18.17557943108848       18.48293982729674
H           21.75584678777706       17.53807843500901       18.29640460258135
H           21.62778130200492       16.56354852679819       19.78915348285045
H           20.82392961875954       23.56312791899727       24.63010031973116
H           19.22618475666766       24.19926343560399       24.15884255335562
H           19.01729905510222       22.99937259949684       26.32969605593403
H           19.75831477109809       21.55805680121529       25.61785435986451
H           17.11302277981738       22.83787204969281       24.76239256532760
H           17.29056755843147       21.29700024750650       25.61961245122671
H           15.90739453903143       14.28288802263380       18.94898974539934
H           18.03546554462057       15.37447466920058       18.76467249462678
H           17.18003350409235       17.79725398953935       22.21965065951444
