151
 energy: -221.324923693090 gnorm: 0.004192575625 xtb: 6.7.1 (edcfbbe)
C            9.55008539086115       17.58282862458901       22.10349512909437
N            9.88031493851346       15.69539885486277       24.22546529376211
O            9.80920608124021       15.30613518188270       21.19298611684015
C           10.42575868421526       16.33970472963437       21.96739025777250
N           13.33341952594030       14.90784767072458       21.43530600570795
O           16.30959962504609       19.52342102496099       23.04663482911804
C            8.49990190975573       14.92546883722095       21.57799105693363
N           19.09731555413445       21.35645860633419       22.42383913397468
O           27.90813777605252       18.18225896304854       13.78436819235334
C           10.84617642730618       15.79266298133498       23.32083182718869
N           20.47300420867153       21.43193228347572       22.66408580515133
O           24.71119988543090       21.63304861282930       17.45278222080500
C           10.14995500442672       15.19216848756447       25.41866793011404
N           21.40479462950871       20.95597687458301       19.30642566297445
O           21.15610212620421       23.08790103616533       19.96368164604809
C           11.40874071571238       14.74534140938806       25.78130498996484
N           22.51375369264964       21.56495650292725       16.96197967058336
O           20.14651610555800       18.62449379624665       18.37361387401800
C           12.42583468455379       14.84676075917002       24.84818954167709
N           25.67560736114723       18.39030813086471       14.15538087857088
O           22.57860406721044       21.16316609559341       21.91513819583894
C           12.16304039171010       15.38177021119100       23.58840384516364
N           27.52948222483481       20.40938162147490        9.00639814015817
O           16.38602788343181       21.76374765039190       23.19840242620587
C           13.26887334346631       15.56562204544679       22.64169921249197
N           17.97728710459075       17.10216834587127       19.37406785696166
C           12.53652766479765       13.77141072463660       21.05021405776563
C           13.07986780081374       12.47853259391599       21.65666798158319
C           14.34811169846824       16.41338197852054       22.78451445364521
C           14.70654791436236       17.22560012193192       23.98996079572993
C           14.21693463579430       18.69040022946071       24.01301271987665
C           14.57183373670683       19.30768986015700       25.36866564611789
C           12.70654864467070       18.75439139953089       23.79928179885633
C           14.88291545977127       19.50044440900592       22.89179054052998
C           16.92294337349080       20.67692657725379       23.19852265658066
C           18.42083618061487       20.49856277905549       23.39644449764955
C           21.36983054211384       21.05835739739048       21.73821873729333
C           20.79158864207985       20.39433565688931       20.48866250505512
C           21.55291154436220       22.27205986350042       19.13692312106271
C           22.29173690856618       22.69263529987206       17.86205321447867
C           21.69241358332826       23.93644690098939       17.15950096466459
C           22.26376009136652       25.19668890666303       17.81069799894758
C           20.16574295054717       24.00595084952915       17.18406725895302
C           23.76602036398289       21.08882590128533       16.88125626010862
C           24.05450902736037       19.82373952076227       16.04672372317115
C           25.43325146640976       19.26737810867889       16.41259413729573
C           25.76741845519372       18.04558532708215       15.55557431581437
C           26.78216789157327       18.50752083136323       13.39876472281342
C           26.56328134485449       19.04680465487652       12.08260254098985
C           26.52261075792967       19.55916096346277       10.99374155093790
C           26.26392305167401       20.22890223946877        9.72392445784402
C           28.59955600635984       20.96749548949579        9.80562123343668
C           27.41646016572595       21.10869472292893        7.74305101782369
C           25.33608876333764       19.30297735276620        8.91526720666204
C           25.52107773807808       21.54096930545822       10.06429221338276
C           24.36538032552139       18.84481843810157       13.75758293459697
C           23.97980627483193       20.10227509138523       14.54306681604023
C           21.35227395502956       21.08066081649160       16.23859832813514
C           21.10074887399588       18.89576748767026       20.56363166705349
C           20.19490439192882       18.04870240468192       19.66679320759787
C           18.78701944854440       17.90598489169005       20.26415978287299
C           17.91851161399689       17.71518245572926       18.05753067962458
C           19.33882590660668       17.84706895676560       17.51101233517260
C           20.87256817864682       21.88778022364023       23.98383706244576
C           20.28654739442972       20.92514201158660       25.01631413961879
C           18.76909559439510       20.86755928400693       24.85078437447265
C           15.11518423181860       16.28445871391506       21.58791917432313
C           14.46214426507110       15.32168252379622       20.78490984091691
C           14.98740644687659       14.94841784821444       19.55212228818592
C           16.13735945154277       15.56446006472776       19.12198769159300
C           16.78683514352827       16.55497723912628       19.88637476416232
C           16.28066768703044       16.90162626979015       21.12709327162299
F           23.11613227163821       18.83384196662645       16.38210051703141
H            9.17405603218540       17.86903511186559       21.12451028782257
H            8.72001316618868       17.38567942273713       22.77453006601936
H           10.13968290447562       18.39870417801867       22.50950287735756
H           11.32144315315259       16.58016373357369       21.38328477661565
H            8.30994738804054       13.98259107374586       21.06859270551960
H            8.43071769306564       14.78539192568661       22.65918808064870
H            7.76489028164559       15.66751365338567       21.25608745821003
H            9.31287050698257       15.15158246659079       26.10283595675383
H           11.58603745681529       14.33360378820474       26.76196039324405
H           13.42320780910905       14.50499053318886       25.08341533167103
H           11.50479321946643       13.93253123738253       21.36691539849108
H           12.54623064507154       13.70846830449508       19.96053963626747
H           13.04679031864810       12.52840325963593       22.74305620075842
H           12.47895315484883       11.63579425059409       21.32862685102464
H           14.11063359183703       12.31900858159441       21.34784418652745
H           14.29587215342823       16.73725059636290       24.87548967309236
H           15.79495908081850       17.23445240275177       24.08216732551526
H           14.07490835508650       18.76780715846693       26.16977118434893
H           15.64492835848410       19.26794494498738       25.54166510281967
H           14.25672411539187       20.34814324996970       25.40648701584020
H           12.35502459320636       19.78167780613635       23.85937635704110
H           12.45034513416199       18.35202694896984       22.82343414251709
H           12.19489625038763       18.16971338780529       24.55948736921207
H           14.51774293818626       20.53159499347358       22.89360863492320
H           14.68050570182031       19.03831697740991       21.92298741696879
H           18.69998556930193       19.46171646288137       23.18667348331967
H           18.69229034972042       22.29412701592247       22.47228089533384
H           19.71390891023870       20.58305532791635       20.46722669346613
H           21.74704840660213       20.29257381960558       18.62864102385961
H           23.29361775937832       22.97646115738726       18.21433627905006
H           22.03437331136347       23.90555102881398       16.11926413318679
H           23.34732828990479       25.22381862089908       17.71827285101406
H           21.85360036280492       26.08556443945818       17.33861032544494
H           22.00543165727884       25.21138553864390       18.86679018530312
H           19.84405963962820       24.92735977505964       16.70528832577467
H           19.70425278812809       23.17437704159865       16.66312401938563
H           19.81183207235169       24.01753380921512       18.21167038078810
H           26.17118345168673       20.05428102905044       16.25889958191536
H           25.44404081636707       18.99966417610451       17.46921005191177
H           25.06258982075621       17.23658576739360       15.76940759910401
H           26.78403896038416       17.70615911562543       15.75912844734721
H           28.71476915158383       20.39207651591098       10.72278729849930
H           29.52490357962567       20.89573285243781        9.23513379641582
H           28.44322497982379       22.02578109876811       10.06947475688429
H           28.35662823499522       20.98367749706276        7.20654043614681
H           26.62348055836992       20.67355051750053        7.14306864430313
H           27.23309991487199       22.18726163873698        7.85977895355781
H           24.85319746222671       19.84835593114858        8.10995876080863
H           25.91523474116480       18.48309426543154        8.50101237469728
H           24.56539457866961       18.89677190703488        9.56454276433433
H           26.14461765308381       22.18543518652889       10.67978857687537
H           25.25519816219107       22.06671425795630        9.15149324616132
H           24.61267522211809       21.31261495858306       10.61435890654996
H           24.36405387199274       19.05317966059341       12.68819095323825
H           23.64702706777231       18.04769055944886       13.97370699418002
H           22.97917187195324       20.41526599327549       14.25456280916919
H           24.68013560298628       20.90895625864352       14.32294045619489
H           21.47909785155414       20.05591299245216       15.91298614110843
H           20.49152280329164       21.11100583863776       16.90295721285376
H           21.16163919181701       21.71873533433179       15.37459934350721
H           22.14508211094887       18.75578779944041       20.28120880937613
H           20.98653858375009       18.55189299897450       21.59133590936931
H           20.62284321301527       17.03564036413522       19.58274326272459
H           18.35331480498650       18.90715932491036       20.42343050076635
H           18.87131393349289       17.39220258046459       21.22197975724102
H           17.32138868864899       17.10253436614531       17.38568081443096
H           17.46553677143633       18.71970806571464       18.11800630056997
H           19.33843112616233       18.36385196558775       16.55146533205555
H           19.78280219213648       16.84883310180557       17.39514083232879
H           21.96203581737706       21.89969001859750       24.00704735874991
H           20.49521819395763       22.90321999245483       24.14057888744946
H           20.54429315737156       21.25596420657851       26.02075726471442
H           20.71365270743540       19.93339948787768       24.85670620628628
H           18.33168167327473       21.84359189974106       25.07460513756203
H           18.33708528822184       20.13119560718982       25.52764383773732
H           14.51616009550680       14.19194037762645       18.94362968991330
H           16.56881872748788       15.26836561629184       18.17842609622890
H           16.75555304426507       17.64753585772748       21.74071592751399
