151
 energy: -221.319872578538 gnorm: 0.009039974431 xtb: 6.7.1 (edcfbbe)
C           10.09422195774055       16.25366096834965       20.78739840173021
N           10.37421939466376       14.45189407924799       22.95556661142665
O           11.08669346746905       14.09640174231755       20.15641341098713
C           11.28265020455760       15.29939871521377       20.90113579437788
N           14.51064611034418       14.65742470628519       21.23373807198304
O           15.71982027809641       20.01080996481003       23.12253825912178
C           11.19131544212764       14.23723306602223       18.75460325398752
N           18.41158951628939       22.11960533046853       22.20717913151435
O           26.06010777632619       17.15134970106846       13.06311247805152
C           11.47552120436215       14.85412893182109       22.33921501228943
N           19.40821791315247       22.90658529395599       22.79681435359808
O           25.12559352092192       20.98185960180714       17.94535415020082
C           10.44632839569735       14.01863968441786       24.20113423206623
N           22.13620263855137       21.72731757634207       20.80306908737362
O           21.24055343587041       23.54738700872754       19.84775586658427
C           11.63350245454014       13.96231957329305       24.91383227272075
N           23.04017973363829       21.81109751314132       17.82648663728132
O           21.54066925491429       19.11700888045473       20.38277672353721
C           12.78839653668074       14.38193295238522       24.28007340657008
N           24.38384036468809       18.36169028722885       13.99368500994238
O           21.60311591925547       23.37281585965102       23.00568107168383
C           12.73187229752526       14.84009717975160       22.96359491807387
N           25.21616038817732       19.21353633777105        8.32038690682185
O           15.92180228487779       21.36611172138986       21.35092352387964
C           13.96919729820026       15.30065996614469       22.32491025979329
N           19.15052224521593       17.60840796176434       20.61831044910035
C           14.12057298816259       13.36145323151010       20.73674914606854
C           14.91323617123014       12.24540557951667       21.41620950774260
C           14.76545936874902       16.36442556967654       22.69485151502477
C           14.58986438808376       17.28133918580473       23.86497346660956
C           13.79721042669748       18.57983370937898       23.60098475514841
C           13.65574538146659       19.34624663318443       24.91960997196217
C           12.41254604961870       18.24907608497326       23.04694589522836
C           14.51263976812721       19.46051055162815       22.56914687000038
C           16.30396742723259       20.96868416021214       22.43394951166957
C           17.47100420330799       21.58843658157725       23.18445870067313
C           20.70780695012946       22.68325084872071       22.53436159303422
C           20.97842855218726       21.47599745487837       21.63385827544672
C           22.14554267204309       22.72007180195000       19.91141572613238
C           23.35758970230587       22.67193113964322       18.97135623114673
C           23.93197749478403       24.04560141969008       18.56479207361344
C           24.35553730407360       24.78294521868493       19.83440629830031
C           22.98698682670985       24.90675658985387       17.73249092093966
C           24.00748682678482       20.97110589902141       17.43104620725433
C           23.72714906103259       19.92669525977108       16.32672033040097
C           24.82047237906572       18.85543964049073       16.36189172065274
C           24.56307241221090       17.78346239555116       15.30623917174001
C           25.12763583244450       17.94916786014182       12.95280103622854
C           24.73090659154846       18.44019544382102       11.65712072951809
C           24.47695950377377       18.65405466731479       10.49851317682137
C           24.03149557628355       18.90073185735216        9.12777891436366
C           25.95858684426145       20.36502432971572        8.78981423085143
C           24.99897881597787       19.30086320322523        6.89188787078160
C           23.39937619486929       17.57784701740640        8.65954993239449
C           22.95689437764880       20.00737035252341        9.14487600355168
C           23.35605912325281       19.37052161484575       13.91516474431717
C           23.64178078127125       20.50182974475089       14.91078473648528
C           21.74404032199565       21.95875169405707       17.19371555460918
C           21.19742052513033       20.21556815922664       22.47500790004392
C           20.93310509456164       18.94658120623964       21.65354477788076
C           19.42045133191753       18.67500003813624       21.55986091206118
C           19.72780201261246       17.92649033287900       19.32832153355771
C           21.23764205969346       18.04782485702447       19.51226419133557
C           18.96303756479574       24.00574437317970       23.63673895895451
C           18.05904700554227       23.45886431025821       24.73977450736079
C           16.90388593019184       22.67957399292736       24.11506869655909
C           15.86582941597126       16.37536446443232       21.78727806825865
C           15.68320244961411       15.28367532416098       20.91009287883578
C           16.62997290826634       14.99600829603218       19.93422740680164
C           17.74713378143155       15.79369802050876       19.85379939547173
C           17.94859556983837       16.90216378837990       20.70466951767313
C           16.99048899623060       17.19268169572500       21.66477837954154
F           22.50833774392752       19.29223211168551       16.61924772052468
H           10.27316875032282       17.13705138136083       21.39149197443314
H            9.94641993994610       16.55946506555545       19.75610439512153
H            9.20332380647474       15.74865547471954       21.14702276785387
H           12.19974711205566       15.79367923377271       20.53766527798667
H           10.39522830977277       14.86412887900051       18.34515583001828
H           12.16273505696853       14.65542931392836       18.47570018234923
H           11.09503926191076       13.23348858641381       18.35329815180967
H            9.50750461455764       13.70737439135745       24.63854199341819
H           11.65256656825511       13.59732952957506       25.92826922175968
H           13.74149763818049       14.34188600976371       24.78707125097310
H           13.05243958703886       13.21901201484527       20.91061447599797
H           14.29890630947880       13.34111138198788       19.65879772983986
H           14.71949600994279       12.24445561926806       22.48612349160948
H           14.62066919127949       11.28237894585028       21.00739399171325
H           15.97942260224194       12.38897237678830       21.25696797463566
H           14.07411625456506       16.74334333844808       24.66302343019580
H           15.58162787945185       17.55994152081110       24.22807632122981
H           13.12880002681624       18.74031488082373       25.65111674654434
H           14.63493425801233       19.59824389316850       25.31770999611988
H           13.09519521662967       20.26610452461570       24.76427212563726
H           11.82068424023149       19.15379803676518       22.92817404280191
H           12.50140679674839       17.76200644832685       22.07949276076696
H           11.88948076044378       17.57916395186375       23.72451845119498
H           13.87193297674468       20.29386372842582       22.26415734358740
H           14.76963757319828       18.88463658849888       21.67558801458732
H           17.97828349982541       20.82208754148833       23.77833673693602
H           17.89463455238211       22.66067896588249       21.50957886712157
H           20.10386975617622       21.35378434691415       20.98623281834821
H           22.85233809945200       21.01433883905199       20.78917977428242
H           24.16558602195574       22.15526994309900       19.50417418455133
H           24.82978034257357       23.83104809604514       17.97108306909542
H           25.07957436468358       24.19706100978206       20.39726350859315
H           24.80692230274091       25.73992894004317       19.57995995760716
H           23.49031484567658       24.96518012510055       20.47183365709575
H           22.80374452063855       24.46139571625266       16.75979500428516
H           22.04313409534106       25.03860179974104       18.25390414337071
H           23.43488910881527       25.88509194522268       17.57776845158083
H           25.77841952748095       19.34620890217142       16.19442124021668
H           24.84823808271307       18.39503385879213       17.34958080559922
H           23.65728773163469       17.22643865798150       15.56957208111249
H           25.40585370999471       17.09204617533290       15.25458978325393
H           26.06390902837158       20.31445191198132        9.87259867443922
H           26.95424976027746       20.33543745923930        8.34330662101987
H           25.48989594610749       21.32316237960213        8.51507853221748
H           25.97699958410353       19.34823169012246        6.41247216666368
H           24.48725554723748       18.41367941956260        6.52939800983026
H           24.43019882413068       20.19681640677433        6.59373279367466
H           22.82051346878774       17.72553464685073        7.75258523217303
H           24.17890961298754       16.84244578869222        8.48080774037775
H           22.73600678323506       17.19939764103106        9.43289324856239
H           23.35757187264266       20.93116145874847        9.55548433162825
H           22.60376201611830       20.19241641907048        8.13358257005469
H           22.11610902474969       19.69013239300372        9.75520993551609
H           23.31961783729206       19.76411914023206       12.89916254314261
H           22.38922142980406       18.91637372962016       14.15957296874188
H           22.84801685068247       21.24038276694480       14.83266415705723
H           24.59564745248569       20.97669688700405       14.68324048092070
H           21.22412631907540       21.00278779015465       17.12969347790931
H           21.14285263472392       22.64103529544153       17.78999617672548
H           21.84401232809053       22.38652419506104       16.19378661559077
H           22.22227687216087       20.22091118626229       22.84545943717514
H           20.52567873139075       20.22468253842264       23.33198427339977
H           21.39999167475126       18.07764718847152       22.14545695422065
H           18.89174205328629       19.60037409180610       21.27869538549513
H           19.09298399703657       18.36501933574849       22.55108400451505
H           19.50548753238475       17.15610809340281       18.59603377055194
H           19.33880512454496       18.88961941240397       18.95709308891795
H           21.73530423237966       18.27558730845015       18.57108770258660
H           21.63272099746453       17.10847951250286       19.92450179003605
H           19.85498305230336       24.48398080138847       24.04263240521142
H           18.41904276762857       24.72738309717529       23.01794761546037
H           17.67280262998577       24.28329437865127       25.33721990374887
H           18.64301781042646       22.80404548239309       25.38863015811932
H           16.27739021236395       23.35477977884972       23.52634251919979
H           16.28660315918574       22.21678828090141       24.88420877225202
H           16.51297047982215       14.16004889267630       19.26138552492962
H           18.49957061666210       15.54082765722154       19.12436646615176
H           17.09512869095196       18.03387925007732       22.32829096818995
