151
 energy: -221.321119939785 gnorm: 0.003489500460 xtb: 6.7.1 (edcfbbe)
C            9.96087956265562       17.37957276009011       21.13887125251813
N            9.94124947862555       15.42550907800283       23.21479232072360
O           10.60103013691550       15.18893473708879       20.21361625734804
C           10.93841061169216       16.20563472309136       21.15981389220538
N           13.88770836637524       14.87356724283145       21.21137481108494
O           16.07970085906147       19.81209104082425       23.44741883567943
C            9.28319293994936       14.67624455721298       20.28489511591729
N           18.87474785132905       21.69135977804495       22.28072486964287
O           27.94678546937390       18.70381561275033       13.36454715143154
C           11.07535695873246       15.61305710354901       22.55308999267353
N           20.09560245556423       22.15507177468658       22.77738218595562
O           25.05451547272575       21.79015789964880       17.44353060637533
C            9.97059528129376       14.89397361230001       24.42536138520773
N           21.91292897073453       21.14059578507487       19.94160678214313
O           21.11107513656466       23.23275524439474       19.94127034119005
C           11.14401870573521       14.51323257989064       25.05420102946795
N           22.84597274197194       21.36222520372549       17.40188477482777
O           21.23017955365927       18.45960918619629       19.42619175704074
C           12.33425335917916       14.70037499203378       24.37330525287580
N           25.87285258182506       18.40145531887127       14.24373608059837
O           22.34064837332344       22.20245083456190       22.58215103757514
C           12.32287590740446       15.25991006349422       23.09747592835084
N           25.86422109043465       20.50504203473189        8.84764592184408
O           16.28137791930884       21.21108928420318       21.71422105165484
C           13.58667142511805       15.50407214875862       22.39525573072959
N           18.78312239564873       17.18275386112865       20.07375455151197
C           13.22977111984515       13.70907544562151       20.67644579151930
C           13.96477913209998       12.42613128646775       21.06133302846766
C           14.59064830227912       16.38772621049951       22.73773096927594
C           14.71964080902030       17.16820315683378       24.00972505280496
C           14.07325150122441       18.56908626595281       24.04610251977515
C           14.23290832125697       19.14433587396857       25.45607977976534
C           12.58957852731572       18.49314865294735       23.69226719903819
C           14.74289231092049       19.49693956665153       23.02950123661281
C           16.72705559673262       20.69868980995994       22.71850873539948
C           18.07980372399870       21.04550936505763       23.31374873860038
C           21.25225752336482       21.79261373216671       22.19809647525453
C           21.10166876149733       20.76077230981066       21.07768096781507
C           21.79386480455324       22.36238032154391       19.41029647568435
C           22.60371745188359       22.60168647370714       18.13468372004804
C           22.06101298712531       23.72678638776914       17.21619088801549
C           22.53831409822381       25.07930549887592       17.74451335300330
C           20.54152228151814       23.75391541633844       17.05395688821856
C           24.12098968120593       21.05957061356121       17.11307420214141
C           24.44663981605901       19.75758359900435       16.34656849218607
C           25.95133823425375       19.48416358014229       16.42906873076884
C           26.34579867726442       18.25888667765930       15.60167266436357
C           26.72092456801177       18.69898361876130       13.23995290532213
C           26.08595593691480       18.99973996822500       11.98225320885292
C           25.65926671978587       19.33013888895162       10.90549119271307
C           24.96164475954176       19.69939702499499        9.67747433672076
C           26.47646413335477       21.61848448548692        9.54230121734669
C           25.31010992448838       20.93715550505593        7.58158681044182
C           24.61586397470374       18.38522223129448        8.95515289405999
C           23.65912319719531       20.41753090258663       10.09838460258406
C           24.44037843885502       18.54361465455651       14.15416428196502
C           23.99614799340203       19.81489262959107       14.88415517099754
C           21.67383499666633       20.65359306530770       16.92629645900149
C           21.49184569961248       19.37945664401985       21.60766258413110
C           20.88289513338339       18.24101484459921       20.78182944590720
C           19.35948681575436       18.13179197949222       21.00289049143888
C           19.12559213916869       17.54781415514702       18.71159472562044
C           20.64392904549349       17.48626692037468       18.58785483526898
C           20.03203430438025       23.06772237697659       23.90556784323028
C           19.25913055310581       22.40114071411298       25.04473846384064
C           17.88643360009428       21.94934432663264       24.54578592751351
C           15.56300098673460       16.30969325631192       21.69414312932802
C           15.09701014952860       15.33847125223634       20.77898035961521
C           15.85061078239896       14.98684976581304       19.66672362305813
C           17.05335737749364       15.61895522744478       19.47274849164853
C           17.52696553269802       16.62756469009231       20.34005985543844
C           16.77364127871123       16.96719479566328       21.45435331096665
F           23.79256197675219       18.68662990714701       16.97831977039985
H            9.78852794630327       17.68546925708272       20.10964648633939
H            9.02144630626707       17.09312484801618       21.60099974178222
H           10.38114013968009       18.21465439569107       21.69077864189911
H           11.92385438575207       16.53909326445245       20.81426885821491
H            9.29264375530638       13.76770400702116       19.68576568740187
H            9.00357003723925       14.44034947109988       21.31463847234769
H            8.56145447355158       15.38129756815945       19.86461440118068
H            9.00700917908899       14.77388520210254       24.90130210750105
H           11.12575354840309       14.08229318907152       26.04186889858887
H           13.27448542062608       14.40565058725883       24.81602232597542
H           12.20899011515971       13.68152067923125       21.05700396880319
H           13.17804777497338       13.80833063829597       19.58924143020356
H           14.02822000507141       12.33916023459288       22.14201996264295
H           13.43138601341715       11.56525189806231       20.67233912970721
H           14.97269232537345       12.42668228627329       20.65798618122452
H           14.27591127758052       16.58965982810381       24.82169312313258
H           15.78382922445419       17.28694984042251       24.22353835148686
H           13.69440551179221       18.52832706840238       26.17132607898105
H           15.28114127543897       19.17199406296713       25.73999740727701
H           13.83359199960726       20.15440767002959       25.50251855540603
H           12.12369071977137       19.47052053246834       23.79111943085540
H           12.46532731956422       18.14919505968787       22.66987855946839
H           12.07844366619986       17.80057686986081       24.35528637380424
H           14.18765903921104       20.43647674631017       22.93819057445764
H           14.78565801811373       19.03038882093593       22.04060183629499
H           18.59222421842617       20.12427589512560       23.61082482917126
H           18.34385519308294       22.45583116923319       21.86119149153664
H           20.05014359094057       20.77563978445469       20.77336744928987
H           22.44853399187655       20.41202152683507       19.49395327380988
H           23.59381394599313       22.93031589231963       18.48132434647594
H           22.52042035857032       23.56196278031681       16.23391263770192
H           23.62505562797750       25.12059516373548       17.77355255643480
H           22.17798530730913       25.88145235182173       17.10604541428910
H           22.15597475728718       25.23468179469776       18.75021274587148
H           20.15044188166418       22.82551047648622       16.65355386019028
H           20.07046200250872       23.94655248434444       18.01400078179199
H           20.27268582992052       24.55803647636179       16.37333583508109
H           26.47512883068621       20.36932977400332       16.06793307748297
H           26.22963523680201       19.33376756765401       17.47236334616908
H           25.90258929095300       17.35786697760874       16.03518811466581
H           27.43168867327797       18.15626728667689       15.57815777628438
H           26.92141131739296       21.27174243025599       10.47362849695361
H           27.26854828113855       22.02118773769525        8.91170232124238
H           25.77089106498177       22.43404500368345        9.76660980518577
H           26.12319340117323       21.35130934671514        6.98616610532467
H           24.89474915982032       20.09069700513997        7.04378903624967
H           24.53810751945974       21.71418563022064        7.68753772746331
H           23.86480908497823       18.55298790888029        8.18878467363891
H           25.51220078459328       17.97248458628090        8.50111506188088
H           24.22234549085194       17.66761264923922        9.67093032407547
H           23.88432451700205       21.31030234111162       10.67988741866892
H           23.08809075198813       20.69849658832340        9.21601520151800
H           23.05586833153393       19.74723391991186       10.70755118135463
H           24.14288551977859       18.58511929477655       13.10735493811047
H           23.98021432493809       17.67211892798591       14.62912721412065
H           22.91607070286805       19.90591354345178       14.81226639972162
H           24.45921371189872       20.68896415599373       14.42476384917894
H           21.86265830241033       19.58893719432793       16.86052616180994
H           20.86714529870092       20.80495535128484       17.63878437610945
H           21.36394085829785       21.03869174690313       15.95352843002965
H           22.57912384384650       19.30138242544389       21.59657946032814
H           21.15653646130481       19.28133015826320       22.63958519039080
H           21.32910339306376       17.28451460215977       21.10336586208167
H           18.88881790854181       19.12314513640742       20.90011738043534
H           19.20630921201152       17.77194622342712       22.02069066353534
H           18.66272301327256       16.87352742719225       17.99729156683979
H           18.79260231257418       18.57649822354993       18.49338642863389
H           20.97537070844501       17.71139908367033       17.57529053080313
H           20.99522442742037       16.48540196308949       18.87466338366518
H           21.05796859545803       23.29917425828001       24.19145322022743
H           19.53178481305888       23.98913682722274       23.58770040829612
H           19.14729361923732       23.10544057982505       25.86729925196202
H           19.82240445574751       21.53764268545168       25.40126332069239
H           17.29222738711611       22.81982123752782       24.25691312130243
H           17.35073964365010       21.40367647763114       25.32103181501634
H           15.51229776056378       14.23592001970970       18.97038316549915
H           17.65946773027305       15.31318492400735       18.63573346969272
H           17.09831579024789       17.73321342493026       22.13992715402612
