151
 energy: -221.321009384400 gnorm: 0.004980066397 xtb: 6.7.1 (edcfbbe)
C            9.88154998419826       16.59438312270988       21.82811510488515
N           10.62722999078974       14.11948050370159       22.94414590936637
O           10.69221147790075       15.03161870122317       20.11551179475759
C           11.05510950679388       15.79230178439596       21.26649785833310
N           14.23056504986739       15.21623376269475       20.50156534583494
O           16.02016204550733       19.60034898089380       23.71612777821321
C           10.40888735578656       15.80001524926289       18.96722901008933
N           18.28756795678058       22.08892580117419       22.66080188715415
O           27.23715967071096       17.87883884300787       13.45761720230590
C           11.56223432019210       14.79697994769033       22.29220820035771
N           19.27012739697216       22.96833626920522       23.12647804752141
O           25.07835951979225       22.14140768662868       17.55610498642412
C           10.98308041353201       13.23727525538091       23.85947955089637
N           21.76507584217147       22.24220456402399       20.57854505713621
O           20.47946916540209       23.47547609565876       19.21451188194332
C           12.30425161871600       12.97411372955729       24.18629453675935
N           22.85450271120288       21.87458291373570       17.72312109718334
O           21.47244914035815       19.33447726749013       20.17153650490822
C           13.28675187634940       13.67141222668474       23.50852990480201
N           25.28451381033962       18.50232698238650       14.43298371376454
O           21.33824327881870       23.82179708448757       22.83069916287763
C           12.92963805266461       14.60653741066821       22.53613808057905
N           25.27583089921458       18.14890633180009        8.62905790216550
O           15.73574769879318       21.24484123065091       22.22778357112308
C           14.00370056298795       15.33653214133802       21.85551284524833
N           18.98298453397289       18.00354712822957       20.16850765552129
C           13.65196958814229       14.22770381621543       19.62653672780124
C           14.50004578787064       12.95773412419548       19.58378839371788
C           14.95363635699313       16.15430422244483       22.42848512844290
C           15.07856717907408       16.58761548354247       23.85447642048392
C           14.32290320117910       17.88788199143934       24.21308807320497
C           14.59581205104136       18.23269454763932       25.67923302346783
C           12.81990457878490       17.69361103002505       24.00699156690008
C           14.75205419381665       19.05331651949272       23.31387139200487
C           16.36961506481121       20.72196860050622       23.11953929919095
C           17.61062818640329       21.35721080119019       23.72386901751346
C           20.47659883259375       23.00478329702405       22.53330237625284
C           20.68197469170993       21.91741746484413       21.47362291893021
C           21.56746164033478       22.97878192891964       19.47958889477609
C           22.80234492370624       23.06913951073773       18.57383507351565
C           22.90094662302707       24.37548124130572       17.75493366264604
C           22.87422103001174       25.56740995851305       18.70952613930673
C           21.82049725693453       24.50941638094460       16.68521892734590
C           24.06524245472536       21.48483267727743       17.31091953814580
C           24.21298531583552       20.17653116695676       16.51053896147798
C           25.65947512310323       19.67875912918479       16.56031986718624
C           25.79588339606459       18.37118599671570       15.77963258602901
C           26.05698642861319       18.22333418242285       13.36795760307535
C           25.39942881288836       18.32320591647211       12.09037222963151
C           24.95680524262491       18.33139339703001       10.97038720139603
C           24.28426461025262       18.41244070017997        9.67619822095168
C           26.44094197098461       19.00782908393968        8.68892595790979
C           24.75245787305055       18.09220033111391        7.28060455239388
C           23.20158731274477       17.31868811702444        9.67032735584597
C           23.61296704822403       19.80132722248697        9.59741714068390
C           23.92343393537471       18.97295645519132       14.34453267242733
C           23.79290852499399       20.32812466633432       15.04608443856649
C           21.59271725303898       21.21030513618953       17.46696552980621
C           20.93308972533728       20.57798948758403       22.17001001471738
C           20.62720873699295       19.35233339750390       21.31197537923602
C           19.16419343219340       19.26119701968736       20.86241908535082
C           19.84134001051427       17.92996035682687       19.00623785906778
C           21.29283594696738       18.12825203940197       19.45808460128269
C           18.87792637844755       23.91435752047729       24.15848761089494
C           18.30110675581602       23.14384126320632       25.34405674925543
C           17.13722014879805       22.27488599499399       24.87080089120175
C           15.84231706962764       16.53494457082112       21.37755859389709
C           15.36145720250504       15.92698603485120       20.19532624811397
C           16.02429151330018       16.10052749451513       18.98889640363500
C           17.18606709734168       16.84090751346634       18.98269251812897
C           17.72585504816017       17.39497682059224       20.15935453425563
C           17.03325617621237       17.25502254192592       21.35449292333748
F           23.42134592908917       19.18639830821007       17.11044060994415
H            9.59606065704193       17.38672333451556       21.14180423558645
H            9.04177717476942       15.92489676245652       21.98606908920766
H           10.16508553971022       17.03654421387768       22.77795456034924
H           11.87589730056486       16.47495015647596       20.98520526047250
H           10.36793858659232       15.09516311195920       18.13968014252918
H            9.44836912861776       16.31521438682200       19.05112985922075
H           11.20037137548046       16.53591546375396       18.78640277525538
H           10.16781795101416       12.72354177897631       24.35038599404968
H           12.55709248394188       12.24657794352337       24.94033373740458
H           14.33218052808638       13.49170790285723       23.71057320871747
H           12.64401814060342       13.99086739421476       19.97076492655414
H           13.57911759718991       14.66135142047741       18.62553984661696
H           14.52066129375433       12.48520985681181       20.56253766451367
H           14.07932556351751       12.25848805617144       18.86729975812728
H           15.52017739028396       13.19436124437040       19.29017423599097
H           14.70384941596509       15.80185480719452       24.51234592627025
H           16.13766427200035       16.73792298746897       24.07128129915226
H           14.19221137378443       17.45689214233362       26.32419091098494
H           15.66376212286598       18.31675377020180       25.85906962453100
H           14.12503760218187       19.17754748452935       25.93966325248830
H           12.59679903839600       17.56600976185441       22.95180962874947
H           12.47617945933754       16.81155851912802       24.54059982545265
H           12.26987064715870       18.55632595812025       24.37485029727896
H           14.01677273557856       19.86340128031731       23.36566022164206
H           14.82665713017095       18.73525927796653       22.26985525972804
H           18.27879337476951       20.58563294611426       24.11660447177540
H           17.58109129929288       22.59198670263165       22.11858476552064
H           19.76894890474101       21.88937213036577       20.87249513161445
H           22.68406298060677       21.89599173168713       20.80531883189318
H           23.69854477338763       23.03754359514687       19.20705471705276
H           23.87946680257889       24.34592488970545       17.26151186225514
H           23.66442906842148       25.48412058443777       19.45199756945933
H           23.01631422537356       26.49114779277658       18.15578992321385
H           21.91888060788509       25.61673346597155       19.22680307837647
H           21.91008674472601       23.71859909493621       15.94453338481322
H           20.83554664984535       24.47376051388719       17.14088897455187
H           21.93240190672572       25.46357659394937       16.17651359522268
H           26.30324007337472       20.45412650825682       16.14764350184043
H           25.95131108551609       19.51415311522443       17.59756069815692
H           25.23260780079550       17.58392002809389       16.29322215835328
H           26.84382455900086       18.07498050885505       15.71119505935808
H           26.81539375036773       19.04944084422678        9.71027110809988
H           27.21658416168336       18.57765442698952        8.05557948821460
H           26.24268154477387       20.03303219354428        8.33896626717276
H           25.55422157369310       17.74834300411500        6.62850464347511
H           23.93942465241579       17.37507673023309        7.22217930208500
H           24.40522961398721       19.06668962105453        6.90640554610411
H           22.48363511041824       17.49299840684525        8.87421068517805
H           23.66471739009832       16.34557064329300        9.53612113220672
H           22.67049178389958       17.32550888503210       10.61853962869385
H           24.35312324005493       20.59229352240814        9.69200826632262
H           23.09336224069981       19.90951978952006        8.64921825726516
H           22.89235583270624       19.90480519477465       10.40349607499061
H           23.64410843360839       19.06292186673775       13.29482430119499
H           23.26259787153324       18.24743409149456       14.83202246716159
H           22.77000131838406       20.68804389636372       14.95368046558129
H           24.45794003570275       21.05816503056221       14.58400343888688
H           21.26987165597908       20.68272310768244       18.36541362517495
H           20.84588305440665       21.95882698371960       17.20670020218347
H           21.67350250035016       20.49674315995829       16.65655052071888
H           21.97967912025982       20.53993055886885       22.47507867327110
H           20.31471553121120       20.51865532032556       23.06201338389242
H           20.84613285891958       18.45217466852877       21.91210517820530
H           18.93344582686699       20.10272206836064       20.19011233856654
H           18.50628323793756       19.32486455067988       21.72399438553796
H           19.76113310306941       16.94129068729568       18.55694628562274
H           19.58248593900400       18.69688115560773       18.25803571317964
H           21.95869495330822       18.17875799542485       18.59861815454541
H           21.58488110806546       17.28478107593921       20.09908936861045
H           19.76805487937841       24.47987153436302       24.43312946321943
H           18.12786502197552       24.60060746233385       23.74897621391140
H           17.95549959666048       23.84701723325112       26.10047235025582
H           19.07938910238033       22.51742481003624       25.78226458877772
H           16.33048512506102       22.91220229270598       24.49981533277262
H           16.75204067297802       21.66488515002462       25.68665911897086
H           15.65128950566079       15.67258573560660       18.07092859029917
H           17.68921832569483       16.99237728398669       18.04154592776625
H           17.42530542103108       17.66564632348297       22.27171174398168
