151
 energy: -221.327993973382 gnorm: 0.004738602417 xtb: 6.7.1 (edcfbbe)
C           10.78457813583461       15.43567948080176       23.64884861259251
N           12.29620454740514       13.07910281281372       23.35412489005898
O           10.84026945813891       14.73126306658840       21.29980898671754
C           11.62642578737549       15.19231544443334       22.39732438532302
N           14.00912020771529       15.65427802133901       20.11042197069198
O           17.08207368994738       19.26185147691029       23.57538898460036
C           10.06349457565406       15.73239152029667       20.67649871656623
N           19.24331973274314       21.71399955271167       23.52329516854308
O           24.35046490937903       16.77859327134234       15.03336034395262
C           12.68401545222780       14.13443516046701       22.65208042684716
N           20.60552802356794       22.03110844487010       23.46472367016019
O           23.16441190480603       22.29858254626487       17.80823896201074
C           13.16489540272600       12.12041983132237       23.61809258639759
N           21.00876193751100       22.72388428970628       19.97019686211365
O           19.16293935565028       23.62651829749193       19.03196723503667
C           14.48831028801015       12.15999199180378       23.20657220425788
N           21.38099334427957       23.32263216504228       16.89716185243116
O           19.67301184569669       20.39612718103225       18.38862673219947
C           14.90238610252763       13.25653879018299       22.47386222720952
N           23.42359040200235       18.83052918351543       14.74280414170972
O           22.43155652986308       22.41398694760416       22.20862576126285
C           13.99454040506544       14.27173484260028       22.17175080231173
N           26.33727166264769       16.24367735452249       10.46894203386656
O           16.82894800995938       20.94080742661202       25.04531005247083
C           14.46039248815738       15.42266977141491       21.38976382076272
N           16.86792495101771       20.25800884065826       18.94621055173964
C           13.25203270956903       14.72366888288898       19.31093584982827
C           14.15111504145722       13.65291883837089       18.69549432958240
C           15.38686783603303       16.37610757418467       21.75230022840552
C           16.11261325971814       16.46979363224319       23.05719676495467
C           15.51325376514556       17.45340230834214       24.08931879585753
C           16.22508427855151       17.25549905577974       25.43072440540987
C           14.01652214976913       17.20841520264402       24.26570389767889
C           15.69126715385934       18.90818309082195       23.62946661317883
C           17.51717793096243       20.24649585991959       24.32983222029651
C           19.02278281618344       20.43070892376842       24.19899634915392
C           21.23551779600545       22.16483863393809       22.28797129118632
C           20.36643853331611       21.99638853106492       21.03766963122355
C           20.37953219570843       23.49388026421539       19.07953488788121
C           21.32891628084943       24.18366077209448       18.08627695068806
C           20.92487068574203       25.64222010309110       17.84697903761073
C           21.89712069398272       26.31928793186870       16.88487449805901
C           20.92020783261093       26.37263162734913       19.19087272898077
C           22.26967709484752       22.32079108383019       16.95738004470352
C           22.24361466870181       21.14051458178814       15.97535212872103
C           22.50935495915625       19.86362111342629       16.77891630076294
C           22.51374194091282       18.65500167149694       15.85470730360154
C           24.19825783350688       17.80029282609438       14.35800369088204
C           24.81038319337081       17.90525790968831       13.06048179164010
C           25.25746224335236       17.71753177451125       11.95744798581782
C           25.74774974713539       17.58296188120247       10.58853497695066
C           27.41184210050544       15.98758345748797       11.40534790946912
C           26.71506697383608       15.84379303207993        9.12977694734311
C           24.51400841684467       17.70528503498266        9.67789110434953
C           26.72098964350279       18.74535681518057       10.30000959927951
C           23.24482078390542       20.03558041076037       13.96592288295163
C           23.28928046184109       21.27505691600966       14.86595064506596
C           20.31572853186089       23.44136178757536       15.92396881893810
C           20.25812802998296       20.49337744237454       20.73024855713957
C           19.19984442727577       20.09935468947559       19.70002928140376
C           17.82710788686634       20.75963812705677       19.91248378326208
C           17.36568956662608       20.57283164913313       17.61959187072483
C           18.74702883383644       19.94338400157161       17.41569249904525
C           21.31502656417661       22.08008435785434       24.73377146317187
C           21.16724821005244       20.73693595893392       25.44632780926581
C           19.68521621342286       20.38902980096032       25.58418618495990
C           15.52697672902771       17.24535931980689       20.62858106117298
C           14.65745798377266       16.75889888124805       19.62650321610275
C           14.55349610547625       17.41981488943604       18.40939438548410
C           15.30267805294644       18.55597714489267       18.21310509360302
C           16.20777733050585       19.04782469097417       19.18016732427520
C           16.32638592035300       18.36332715770748       20.38288117968251
F           20.99846345589430       20.98416637092966       15.36154721604276
H           11.43229713347823       15.70700145522133       24.47641852292397
H           10.07678814267778       16.24256738163682       23.48042322443314
H           10.24762820802683       14.52608611157258       23.89856958328724
H           12.12657070776146       16.12637494202530       22.09520318104049
H           10.68482153531579       16.59523843905146       20.41090785148242
H            9.66150421909037       15.27774980517760       19.77395238456578
H            9.24027083226059       16.06218943311403       21.31470080822840
H           12.77825829939445       11.28818095006202       24.19026860934018
H           15.16721743104725       11.35827112208857       23.44774234467271
H           15.91967989556506       13.33497925518742       22.11773504839593
H           12.49183886252625       14.25038579193205       19.93620260627267
H           12.74842363587632       15.28847091210036       18.52395904633834
H           14.63122378878750       13.07117308080889       19.47922925294363
H           13.55775011915655       12.98276655585142       18.08154247865092
H           14.92191279086074       14.10961600635274       18.07938484303500
H           16.12679049251993       15.48068472012762       23.51939131928340
H           17.14420423446444       16.77148975823292       22.86323957149392
H           15.99512144303682       16.27399885123421       25.83620332556139
H           17.30359799625021       17.33395087894836       25.31045069110773
H           15.90246056072971       18.00928431422605       26.14637316380349
H           13.61366752313240       17.85572922489303       25.04008740705134
H           13.48947022279440       17.41073567774301       23.33800082010281
H           13.84076225546930       16.17353827669542       24.54634486704652
H           15.19040776622995       19.59202427221526       24.32061998511973
H           15.28608765551869       19.04272038811030       22.62460762766487
H           19.42166899097732       19.63516559964390       23.56278893163704
H           18.75388709101665       22.43840999545433       24.05173910671426
H           19.38013649264337       22.42824147549315       21.21401331257803
H           22.01831572038752       22.63551715147226       19.93976048966950
H           22.34151112368504       24.17456896813006       18.50179957715603
H           19.90432852664522       25.67843091787136       17.45648596607486
H           22.01911555671072       25.74554147086015       15.97009766015392
H           21.53907661252999       27.31270278013054       16.62795836586374
H           22.87395170991531       26.41615092502294       17.35574039077566
H           20.15956372243523       25.95829755087620       19.84825196678187
H           21.88684128126051       26.28481642692531       19.68163394997268
H           20.70277786691832       27.42581912874751       19.03666038289113
H           23.46301169271239       19.97820811089519       17.29189362326691
H           21.72151813679147       19.75233866343214       17.52580743437865
H           21.50160450811279       18.50028802152514       15.45908884247646
H           22.82119126632023       17.75889935614930       16.39534862944144
H           27.11736707572857       16.31521963414966       12.40095348868380
H           27.59031856723148       14.91272986881657       11.43847401531910
H           28.35581241568652       16.48316863229327       11.12947643724569
H           27.54611999863163       16.43273151431582        8.71468587401925
H           27.03018859261163       14.80241323775323        9.17339132595463
H           25.86070402654052       15.90908122466708        8.46352184154175
H           23.91789026330384       18.55948307884835        9.98842635309174
H           24.81150306642459       17.85101480699480        8.64356476197532
H           23.90735575457595       16.80803977676419        9.76046462306276
H           27.53341523687961       18.75540437548172       11.02204413830742
H           27.13304205864912       18.64316824372722        9.29949182281770
H           26.18862907978524       19.68997638347353       10.36363095148122
H           24.03572899524675       20.08958064255694       13.21671963797901
H           22.27371941207223       20.00000303111168       13.45682185535405
H           23.08785589843289       22.16179175284035       14.26479927195548
H           24.26604586374783       21.38077923001825       15.33672476933124
H           20.65851500350499       23.12576009403336       14.94331960780407
H           19.45003523243536       22.84394399821330       16.21819135761121
H           20.01303177050190       24.48060918751944       15.85838858068632
H           21.23104804489958       20.14792174808367       20.37302770574826
H           20.02065891204449       19.96944412980259       21.65290545555540
H           19.06837463473638       19.00279985837198       19.75973681933532
H           17.92428721531461       21.83330459517002       19.72517421886847
H           17.47331436511111       20.61002881562968       20.93026722316185
H           16.69127375663369       20.22522154037423       16.84264700789481
H           17.45404640008906       21.66212930062948       17.55338966912727
H           19.16200546038604       20.21340327602845       16.44684091177460
H           18.65895181873870       18.84681978589684       17.48413607973914
H           22.35772608869013       22.30890316927478       24.51497195869416
H           20.88608199986168       22.88258208238481       25.34179220895130
H           21.63249846811372       20.79211344169073       26.42915096480989
H           21.67541338870103       19.96534536430356       24.86547531493878
H           19.18295520321064       21.11198428480996       26.23093355197568
H           19.56363927966721       19.39795669465935       26.02032786191626
H           13.89336457319402       17.07097508445681       17.62946362792826
H           15.17512952379295       19.08635318045151       17.28356575706970
H           17.02757849098674       18.67011206374782       21.14024823692569
