151
 energy: -221.308991399921 gnorm: 0.008399137225 xtb: 6.7.1 (edcfbbe)
C            9.92522237994775       17.79756935161773       22.83178262285384
N           10.33670547953326       15.47781802085236       24.36685599333674
O            9.88870342639159       15.76428958749046       21.44546273725623
C           10.69698082555872       16.60288018457625       22.26922527270871
N           13.36504350237631       15.04040710148766       21.09720052528267
O           16.91198735552944       19.35496800865794       23.07819137636308
C            9.49202392615033       16.34311024880048       20.22053948371254
N           19.48783702867609       21.51198124737597       22.89151230178047
O           27.20428954420845       18.32121164731667       14.71173203207086
C           11.20698488770612       15.72664775467947       23.39949918979715
N           20.86314302998047       21.36515882294574       22.67786734699508
O           23.59371886078013       22.22195638232255       17.92992419438373
C           10.70149974017420       14.73852383052298       25.39781637566561
N           20.47085297721799       21.42546028886487       19.34757791621671
O           21.48270831768401       23.14136415574589       20.40647988782444
C           11.97262839978014       14.20103657935754       25.53358517131220
N           21.54075535823956       22.25431196815827       17.01253163583459
O           19.73378678588993       19.20340514494201       17.81914437734264
C           12.88680292090819       14.45010678030811       24.52732177786463
N           25.01943541130287       18.93223435105960       14.77482600401529
O           22.65636474020296       20.69765747157432       21.49316707793655
C           12.51596753977519       15.22188330267990       23.42590812668552
N           27.26188111506303       18.68235714153648        9.45944328986823
O           16.84889672577785       21.32201979404967       24.16390085484266
C           13.51013164212280       15.50259605354421       22.38664873723910
N           17.85224393675682       17.29984552084545       18.76603528830235
C           12.42847863424871       14.03201053244465       20.66432988758567
C           12.88543710110628       12.63017989714627       21.06522562516597
C           14.66601174718584       16.24493119764074       22.50291316076817
C           15.27001237759785       16.82928472912323       23.74296211751951
C           14.90753616227345       18.29236036197367       24.08378224107249
C           15.47479530678045       18.62329420478580       25.46697836903924
C           13.39088427795841       18.47875245031809       24.09679776506482
C           15.47759222702731       19.26640994695862       23.04048531749958
C           17.46288859104757       20.40728346170863       23.66659942352718
C           18.97993823533221       20.33074220940428       23.59964630346422
C           21.44298975048070       20.87627879812643       21.57005209621945
C           20.51240540603023       20.44800648095407       20.42087146293108
C           21.09011577063575       22.61446087432692       19.37431777956499
C           21.21846689099141       23.29401041973567       17.99893647732146
C           20.01068123039660       24.19687985789191       17.68906015567887
C           20.23067626420870       24.99468078856360       16.40396413321982
C           19.79737634348476       25.17610977650097       18.84448762631829
C           22.76997016908623       21.72863496779044       17.15817013555952
C           23.18470976317252       20.47665504454837       16.35416619742146
C           24.46585953345373       19.88956634163561       16.95054082230089
C           24.87684787944442       18.63489005257376       16.18061866216802
C           26.19995593026581       18.77279106303477       14.15425941437118
C           26.23586788008170       19.14764188200136       12.76482805148327
C           26.49356897425422       19.38378496368597       11.61239443089584
C           26.68785346613641       19.79701670323911       10.22824473797382
C           28.23003625147446       17.88219402466022       10.18140711138296
C           27.77950967489603       19.06105278347679        8.15884825579461
C           25.30632996173703       20.14901654284921        9.64939039986364
C           27.57455555917083       21.06053668508910       10.28258869438445
C           23.83163787722011       19.46592993881865       14.15558989569623
C           23.38484838422332       20.74989687157412       14.86350872314219
C           20.53657782410370       21.78028775185165       16.07659535824366
C           21.02313988338875       19.11130770953914       19.86411994691787
C           20.03025701608427       18.39445076960332       18.94210415717021
C           18.74007180014883       18.00391239989105       19.67228422845418
C           17.57534414995342       18.12863947772826       17.59900807980912
C           18.89157277474984       18.49906499108514       16.92385183759453
C           21.57894074614236       21.51733583585412       23.93040162544935
C           21.13552140567065       20.39507215076098       24.87356871359093
C           19.61018752944558       20.38051659212480       24.99839134501672
C           15.26121345238878       16.25246931327283       21.20710208575424
C           14.43732916582064       15.47097305811257       20.36621386853927
C           14.78041491203888       15.26227785109332       19.03453374143958
C           15.90929300309540       15.87819717636090       18.55081460711429
C           16.71901833784004       16.70206216681820       19.35744699330867
C           16.40412572576177       16.86650355873063       20.69504471355819
F           22.19325913603606       19.49276976672633       16.50454578267638
H            9.61797768572872       18.46701903149953       22.03259979527996
H            9.04972029886589       17.43729950895136       23.36697908255342
H           10.56038360344675       18.34775436827063       23.52145806296870
H           11.55306831993914       16.96172895777056       21.67252285704805
H            8.83279326938579       17.20398405370211       20.36905109062604
H           10.36787836861776       16.65198419350730       19.63254040631520
H            8.94895634331635       15.56086892015236       19.69220937443831
H            9.93776653615886       14.57949876836637       26.14670078268114
H           12.23504242821833       13.60828269723306       26.39458979101666
H           13.88822847348471       14.04661190652020       24.57233151117516
H           11.44385039316319       14.24106596128443       21.09362466864320
H           12.35078752429640       14.09877966266187       19.57574240860728
H           12.90057246731270       12.52969226248370       22.14790344651242
H           12.19997940032060       11.89266726134112       20.65975323727114
H           13.88491935344713       12.42861476926366       20.68133105469397
H           14.97242500422198       16.21919523499130       24.59801741247106
H           16.35688851567201       16.76696714989049       23.64670175685425
H           14.98364326284430       18.02135054239865       26.22665984514142
H           16.54341249843832       18.41983563755399       25.50744125075581
H           15.31941828430912       19.67419260288606       25.70357610319157
H           13.13513348878194       19.47434098354456       24.45060092154155
H           12.98813589267008       18.34736669047203       23.09670810812477
H           12.93101769935727       17.74700166099303       24.75542493491588
H           15.07375923215213       20.26852628157119       23.21099024056364
H           15.22810979306361       18.92631533862716       22.03469837850831
H           19.25544810621119       19.39131780299385       23.09188155182715
H           18.99992343916790       21.71373668512080       22.02494883188639
H           19.49469813270120       20.30682751064713       20.79833948893161
H           20.22041727242644       21.00026291902437       18.45997492990988
H           22.10450407305751       23.93618242365139       18.08485815896320
H           19.10665947672937       23.58956685992522       17.59939643749563
H           20.29150702960164       24.35660850778376       15.53029298861633
H           19.40552022383464       25.68825126225152       16.26354838715641
H           21.15112117889934       25.56892056384383       16.47694644242237
H           19.63787307398942       24.65960834005587       19.78680149514244
H           20.66937488555444       25.81576181902527       18.96424604538011
H           18.93239226620194       25.80163110950387       18.64198691210848
H           25.24617159700049       20.64768142387443       16.91113547859941
H           24.29796050776315       19.64307578050875       17.99960410580640
H           24.11061558563985       17.86206407426079       16.30606130237401
H           25.83225242832318       18.25705565584616       16.54788506318725
H           28.54404882563073       17.06305203349477        9.53502335942988
H           29.12849249532529       18.44513882956035       10.48632939617798
H           27.76990656753176       17.46143922757175       11.07593195352906
H           27.06055954123487       19.68798502620217        7.64031421905012
H           28.74479962922333       19.58578026323742        8.21437720748178
H           27.92248322004696       18.15155225981058        7.57572040994078
H           24.78883341359831       20.82539796300224       10.32395932588435
H           25.40663208862199       20.63540980108282        8.68346275477094
H           24.72024878128700       19.24231274307752        9.52970075003606
H           28.55892442532350       20.81746621107148       10.67845021641837
H           27.68351050484947       21.49114239140407        9.29111687979299
H           27.11724530484255       21.79832135262763       10.93651549243809
H           24.03361115496316       19.66297390167245       13.10263461757990
H           23.03409211946872       18.71968504450323       14.23679980430232
H           22.46397886007411       21.10136402999891       14.40375802295009
H           24.14740963785345       21.52292255334289       14.76978035815379
H           20.66335146197038       22.26733095972081       15.10922577361290
H           20.59640821589617       20.70522411546029       15.95074691576252
H           19.54860152102408       22.01483425147203       16.45793878216266
H           21.95015368911889       19.30491968076922       19.32232655896960
H           21.26010067396740       18.44641897301728       20.69594259710463
H           20.51033387120427       17.46953881658839       18.58464199170626
H           18.25130692291479       18.91186945931913       20.06036450460028
H           18.99554425151074       17.34488522141089       20.50156219924891
H           16.94545921410656       17.58600854542579       16.89790812514491
H           17.05644243840890       19.05502150914598       17.89989681277365
H           18.71798570360966       19.16006257334217       16.07680605670369
H           19.40479788608453       17.58948292542586       16.58496413636808
H           22.64573034891562       21.47234683752787       23.71505299324102
H           21.32019800905954       22.49420704289574       24.34180350023917
H           21.58580427741206       20.54349123857205       25.85285260560130
H           21.48143409284368       19.44143545623244       24.47095729694745
H           19.26393236200946       21.29387129995525       25.48178297116086
H           19.28650003452693       19.52215347922716       25.58690026718703
H           14.18847134298675       14.63298001183328       18.38852426247637
H           16.19650245897743       15.71226413105392       17.52452436350083
H           17.01529889750308       17.45841849226433       21.35730521926908
