151
 energy: -221.318992630498 gnorm: 0.008952479516 xtb: 6.7.1 (edcfbbe)
C            9.63427443962751       16.76803360113837       22.98443602634691
N           10.47464990949508       14.43416930496460       24.27554074338639
O           10.09627111593790       14.98319827107031       21.36039851482463
C           10.67072085384784       15.84808575144305       22.33725350699964
N           13.53867344292400       14.91425585854128       21.08322431544940
O           16.11472700913669       19.67516857644309       23.41375938200058
C            9.69620041261043       15.62495398306729       20.16903234232579
N           18.10104080234251       22.09245186021360       23.01214483922953
O           26.97965912044548       17.85688848411609       13.54057044004334
C           11.30558453128128       14.94809471228870       23.38222030764557
N           19.44298963107045       22.49570666962637       23.06309585594763
O           24.34123702830906       21.30446924752428       17.67077715992678
C           10.94724048311227       13.64683001452106       25.22565848750917
N           21.04545756463657       21.46272279156806       19.97669713106394
O           20.00250873271502       23.30155689271153       19.20701162239808
C           12.29096340800306       13.33302144513704       25.34881157105187
N           22.17893723769548       21.76448744271720       17.24833706392641
O           20.32598897767904       18.66519888294688       19.36125520529338
C           13.16790297074951       13.86053555875206       24.41720931566922
N           24.92705666437941       18.78162172981932       13.82139862427709
O           21.54614810746263       22.65922396804747       22.29047919424802
C           12.68474926486856       14.68212911073625       23.39992476603256
N           26.93829577224601       18.63531718106864        8.63215878115678
O           15.38463549012270       21.55841830600009       24.39504180445017
C           13.61942920565389       15.24347414958468       22.41875011301707
N           17.52875289495050       18.17489716298397       19.08600344376187
C           12.82465609399486       13.78123835465217       20.54799683876603
C           13.67441306969442       12.51342048213094       20.62320155880336
C           14.64312615341047       16.14202466009286       22.62884394459473
C           15.11545765531436       16.72305986852355       23.92412548129882
C           14.47720931603197       18.06858760795036       24.34170327365346
C           15.03589358170938       18.46658837791249       25.71161359111014
C           12.95853212464455       17.93470925338007       24.43910725253752
C           14.77297809248640       19.17101553717561       23.30965066378950
C           16.28212976657774       20.84977114892923       24.00443528077581
C           17.75964233181469       21.20753938259789       24.13231540754629
C           20.41017510465387       22.19344931956596       22.19241172660172
C           20.05808803902763       21.26272243804080       21.01415622925832
C           20.98040579705452       22.56432308188952       19.21376731224247
C           22.18827596267948       22.77769039670605       18.29662528026377
C           22.20031465481152       24.21759515611948       17.74784089079169
C           23.08187852992046       24.34362899239554       16.50877644588167
C           22.68895456581045       25.15086985533385       18.85524768154370
C           23.31315363767205       21.08993418711043       17.02700354731101
C           23.38134256357522       20.05059318688265       15.89114527823309
C           24.46228308288738       19.01508047685327       16.21337009509581
C           24.65366275430965       18.05626633717277       15.04215610987299
C           26.07249237951875       18.59395941546317       13.14667022262112
C           26.16730287246334       19.23899525972343       11.86129812000988
C           26.39812900347944       19.53485645330263       10.71567337792815
C           26.57030941305705       19.88978584703827        9.30582345184232
C           28.20028683247075       18.08214934054106        9.08441833038105
C           26.86543433321140       18.65004532904926        7.18363136737629
C           25.21678204735128       20.40663517871705        8.79655208986714
C           27.62570263177333       21.00946287344231        9.19748249189524
C           23.89697779858067       19.71919731697629       13.44564936350396
C           23.69539830911046       20.74937694831601       14.56354335143972
C           20.91674384353072       21.55750505125707       16.56771842286154
C           20.02993320121235       19.80509194578556       21.47604880804157
C           19.44229592607183       18.82150866482993       20.46316971695439
C           18.06154171664122       19.22330933336157       19.92232215560075
C           18.43596137617024       17.88116652259700       17.99750834204655
C           19.86518368636834       17.63142449152385       18.51195039194241
C           19.69869436110857       23.32320015220535       24.23093527910759
C           19.42842996034588       22.49706635612087       25.48551638245285
C           17.99770324780899       21.97072333591666       25.43807672686849
C           15.23075887315905       16.38403892485008       21.34991370054304
C           14.52683832040474       15.59015670722543       20.41788791689643
C           14.87040780715400       15.61635168114728       19.07154385055950
C           15.88179620151878       16.45814402205262       18.67022694483922
C           16.60408976350698       17.26072268352706       19.58015392060159
C           16.28835172355839       17.19193610945659       20.93036753381475
F           22.17051213706333       19.35757701659464       15.76946975665815
H           10.09066920710586       17.29754429482913       23.81432296936530
H            9.25845624152598       17.49177179531873       22.26715950646240
H            8.81567015445526       16.16175402786844       23.35833430996328
H           11.45635881421889       16.44954090177389       21.85038318372577
H           10.52095222525352       16.21267432653658       19.74790745865733
H            9.42442812441588       14.82777203035208       19.48022197911337
H            8.83250119628206       16.27576504087619       20.32841033922729
H           10.21015434582937       13.26073691906165       25.91720181615304
H           12.63831576132742       12.69089151451755       26.14247042848302
H           14.22250246288492       13.63087056294845       24.46152786236292
H           11.90026083572864       13.64675622400108       21.11260256870056
H           12.56332075338821       13.99752503993018       19.51018960741477
H           13.93907566226673       12.30320421268084       21.65776804601219
H           13.11940937863909       11.66762214447688       20.22838174922092
H           14.59028969766642       12.63591650726424       20.04900894167358
H           14.92315226613121       16.01041561730865       24.72853028604492
H           16.19571648977526       16.86995950328190       23.85232650679440
H           14.69231237276495       17.76526614778670       26.46808802197039
H           16.12529940992605       18.45850847367689       25.70859364561140
H           14.69873425184558       19.46374824262399       25.98838787151131
H           12.52751182056192       18.83831792785917       24.86396665564967
H           12.52867539250464       17.77352969372654       23.45534516607766
H           12.69277502730760       17.09351833562283       25.07440665770525
H           14.09007958933104       20.01288259751772       23.46323255718699
H           14.66225726330576       18.78528751607278       22.29439988030901
H           18.34238625197009       20.27076442396520       24.11986072208314
H           17.87924921783706       21.66268296536720       22.11977187476742
H           19.10454218362361       21.58522496466007       20.58249083068299
H           21.90517446000034       20.94011245810966       20.04609497137089
H           23.10488393492522       22.61642280460842       18.87528507226510
H           21.17196753371829       24.49837524576195       17.49517492304186
H           24.07254289188920       23.93667935471904       16.70673429416714
H           22.65019400876765       23.81427456452180       15.66355368872181
H           23.18478931903587       25.39111058981966       16.24149595707198
H           22.09248414519292       25.01443329721445       19.75701219632400
H           23.73218085807601       24.94470570251891       19.09527381996996
H           22.60157062475592       26.18859641116818       18.54077704618589
H           25.38803548759775       19.54525340130429       16.43852937791634
H           24.16344684796383       18.45731973101970       17.10389018757896
H           23.74107261672960       17.46568575772179       14.89729488319123
H           25.49299852138333       17.38505430809751       15.23137822283438
H           28.26593726282550       18.14367293664688       10.17194053009553
H           28.23407996382594       17.02718686784944        8.80355700971752
H           29.07689452229985       18.58648387555243        8.64404849681100
H           27.55395329065685       19.37241879440114        6.71402036917286
H           27.13072654662890       17.65405914760684        6.83031450503648
H           25.84848940824316       18.86065652631085        6.86027654128747
H           24.85353818559487       21.18067586804149        9.46808777479511
H           25.31825677816172       20.83358876358165        7.80221563585675
H           24.49417271098025       19.59430425906577        8.77376056582773
H           28.54039281758728       20.73193295903003        9.71580293108677
H           27.85374288712466       21.20731318665736        8.15238428654826
H           27.23952185454214       21.92043062849615        9.64735634124830
H           24.18739071230981       20.21814928824275       12.52011012193592
H           22.96058322214276       19.17347380775648       13.28330856002850
H           22.88839143942296       21.42804897279436       14.28790161152336
H           24.60581505864993       21.33181183027753       14.70782256813722
H           20.43397889664842       20.64841243728642       16.93100744729777
H           20.27190039835325       22.40580499728021       16.77979122943173
H           21.05019511824179       21.48171414303592       15.49121260891881
H           21.05295067748798       19.49753631506342       21.70461981249603
H           19.44005416701277       19.72335749523943       22.38796258854592
H           19.34781832329332       17.84131807418213       20.96469338990793
H           18.18536423522287       20.10840839926202       19.28700806306269
H           17.36809674187112       19.45313200278193       20.72743199199995
H           18.11053615908051       16.99882866550345       17.45244592064939
H           18.44711110784795       18.74065206812734       17.31581253723207
H           20.56839539118045       17.59086737435717       17.67778107303510
H           19.89389724394718       16.67671378779641       19.06097634587141
H           20.73395887619219       23.65792331800585       24.17488853202691
H           19.02418572108133       24.18163473064514       24.19114705459014
H           19.56916322941584       23.11826768422327       26.36749588318218
H           20.13284204521614       21.66535419367436       25.53160335192138
H           17.29017188433052       22.80112635905954       25.47106839322317
H           17.79848286405026       21.31227658671484       26.28433315593831
H           14.34567898842705       15.01520970308952       18.34414120111639
H           16.11038097278648       16.51820881709645       17.61840135053926
H           16.83197293337847       17.75130053741812       21.67537967176527
