151
 energy: -221.324583041613 gnorm: 0.004819207975 xtb: 6.7.1 (edcfbbe)
C            9.51267937423649       17.61157158152010       22.47208196149671
N            9.85477662682618       15.50269117591952       24.30714165629930
O            9.74885476739607       15.43289442676660       21.35768846099287
C           10.40985507178782       16.41622895554444       22.15378398522337
N           13.24472272134100       14.94875947621644       21.44968033956608
O           16.37939418944923       19.39565096820363       23.35263323302827
C            9.49530886297391       15.82033960882029       20.02458723722337
N           19.13389643348655       21.28845216732209       22.62828580229851
O           28.06405631342032       19.21201896365909       14.06617778557411
C           10.82461941405425       15.70182692110117       23.42736522662996
N           20.51619290418515       21.35273027674034       22.81587644837958
O           24.22629732832458       22.39852704227249       17.47745488513074
C           10.12198519993307       14.87535044697068       25.43808782045734
N           21.16342780611458       21.00382214268244       19.39324605916487
O           20.87541956375325       23.05032363250180       20.24013273449219
C           11.38547718021998       14.40745901173976       25.76378853950997
N           22.08517024274467       21.85096895882072       17.04745162599973
O           20.11351354762150       18.61360054838731       18.43428002951477
C           12.40578875135013       14.61306854203743       24.85306091066821
N           25.82001259986566       19.16820449979661       14.40532478716136
O           22.58018080764164       21.12320617111749       21.94211411917207
C           12.14135720608461       15.26969224411527       23.65205513447036
N           27.32702320390137       19.10875832661856        8.92851077148806
O           16.45600573607526       21.63694556212701       23.31892269093123
C           13.23439641527416       15.51367120555893       22.70522054910429
N           17.92722061722508       17.11440058652187       19.43760870242691
C           12.43195019796551       13.83405575635964       21.02988516625339
C           13.02107126917672       12.50870867546487       21.51020958287427
C           14.34140700496978       16.31657485873045       22.87904278589068
C           14.74849848629701       17.03889613005793       24.12486451801205
C           14.28509327931078       18.50639526438136       24.25340389667010
C           14.67165715876213       19.02626171332872       25.64051776010484
C           12.77347505454925       18.61565479512087       24.06734469679719
C           14.95369729970077       19.37458054252385       23.18014931217063
C           16.99582306061324       20.55559209851118       23.40486750055916
C           18.49593842479368       20.39593649215648       23.59230639779650
C           21.36416787229348       21.01653324198909       21.83012535078345
C           20.70872968797526       20.36556970059225       20.61007432477733
C           21.18122632481304       22.33499715080902       19.28874293377847
C           21.64508262340681       22.91622022121454       17.94520483530255
C           20.62515416759947       23.86240729771709       17.27166975539565
C           21.23727776252146       24.46270273839643       16.00479275045123
C           20.20666189953753       24.99790013275051       18.20157479192902
C           23.40661235891955       21.64161857872483       16.95652320177541
C           23.94143777047247       20.41713724927745       16.18467811419781
C           25.39135086837294       20.14850768498216       16.59382277348793
C           25.94104786513417       18.94653576822909       15.82776390851869
C           26.91212784300585       19.32367963866542       13.63883033526237
C           26.67312451874567       19.61667800725281       12.24893254262462
C           26.65725830890663       19.84035243908290       11.06584249557250
C           26.56665063372069       20.14585272429056        9.64037860485938
C           28.71866406181548       19.01953037046745        9.32628511207454
C           27.21489841276244       19.13728427138946        7.48549559191888
C           25.08060896409123       20.08152678385169        9.25130061402138
C           27.09461995668386       21.58133978351674        9.43773024233454
C           24.46517890356360       19.38141947841071       13.95602676021241
C           23.84932994607256       20.59222288305427       14.66708046614467
C           21.04342098030243       21.11888040423232       16.34397671212866
C           21.08645084388256       18.88181977027357       20.60610134858444
C           20.17074864009778       18.02852077587867       19.72337375615595
C           18.77075258196126       17.87033670775043       20.34009576389872
C           17.86292858603263       17.77773819007420       18.14570673867894
C           19.27497963085532       17.86911794621994       17.57435652961162
C           20.96407219738932       21.77897505586472       24.12907316805931
C           20.40462338980431       20.80141021174722       25.16456390340220
C           18.88166716042374       20.73321333254443       25.04480653093504
C           15.07823286936902       16.25113241280334       21.65717574315298
C           14.37426874395626       15.37073273006870       20.80379728497731
C           14.85923384015417       15.06939439437986       19.53632111377112
C           16.02517337459951       15.67001807029848       19.12738366078679
C           16.72893607622921       16.57891701041925       19.94371649193864
C           16.25786240657252       16.85690223876076       21.21621431386584
F           23.20149322216487       19.28395469454157       16.56376002627862
H            9.25537604539450       18.14972264995849       21.56408377342319
H            8.60843257026354       17.25500215628401       22.95494158150327
H           10.03209408220467       18.28697700174110       23.14431348711969
H           11.30834486563110       16.75684847937758       21.61245364120353
H            9.13900880597214       14.92364263923606       19.51904859123323
H            8.72771618193378       16.59682799930838       19.96590596070370
H           10.41277693003324       16.17779863648090       19.54098832658367
H            9.28280583206361       14.74822620983699       26.10831516051359
H           11.56014769464522       13.89739935085648       26.69709060932636
H           13.40531728467643       14.25637098187699       25.05629040187414
H           11.42135679722409       13.95736276638092       21.42428204423665
H           12.38019351506856       13.84664321490912       19.93915525931778
H           13.01564851769642       12.46608530324928       22.59710105488857
H           12.43121115981026       11.68144639050306       21.12696017414035
H           14.04673956387353       12.40293130974770       21.16316167830216
H           14.35590251073613       16.49926619120131       24.98859313244730
H           15.83887591381487       17.02722215027086       24.18300876746644
H           14.13080418519763       18.48263457614430       26.41020390788330
H           15.73815889463764       18.90067269838879       25.81381287139544
H           14.43077162372167       20.08360697066049       25.73112866904346
H           12.44533903358198       19.64276303140286       24.20708642792629
H           12.49214598787856       18.29294874757066       23.06914118257367
H           12.26085914633638       17.98639421571917       24.79060758025530
H           14.58542560574267       20.40353069520522       23.22988773182751
H           14.75895633113305       18.96571146427926       22.18570047922260
H           18.79077841801888       19.36992720330279       23.35022787827100
H           18.72766198642057       22.22264073909222       22.71009800766640
H           19.62727897493340       20.50360517341045       20.70552119777494
H           21.36052348863359       20.37671827200337       18.62752774045280
H           22.53721698170732       23.50866054135361       18.18684553431779
H           19.72970328309145       23.29305000487649       17.00893396688902
H           21.62801946326033       23.70117734475002       15.33722917348699
H           20.48572873637887       25.03898500841556       15.47201106276650
H           22.05715771641832       25.12733347931163       16.26882943036697
H           19.73603857463905       24.61855467255193       19.10325322733020
H           21.07350443608495       25.58299920347371       18.50039212665088
H           19.50522583730105       25.65053916311635       17.68824915141737
H           25.98008069916010       21.04111255450204       16.38410378394452
H           25.43379782720048       19.96395869020161       17.66746780095951
H           25.37628312725746       18.04799689190408       16.09578554458084
H           26.99589439720687       18.79494110637193       16.06114877115640
H           29.10286049173961       18.05021147083549        9.01227796984186
H           29.34629489996590       19.80031345674395        8.87243468161866
H           28.80166137028441       19.08830078111102       10.40858780774503
H           26.17216296691915       19.10030382141781        7.18631026847917
H           27.69281156057068       20.01669687116162        7.02781441943181
H           27.71061832980108       18.24737564569646        7.09904961545652
H           24.76483592586757       19.04511195331168        9.17804500734657
H           24.48566023285674       20.57775888692278       10.01325508754817
H           24.91033891002314       20.58344468752231        8.30341687729230
H           28.10961647654836       21.67666925657261        9.81629604903957
H           27.08251842946091       21.83522411507283        8.38079151989170
H           26.46137430737492       22.28343382395129        9.97335329396273
H           24.46606002195660       19.53594178875430       12.87696456408609
H           23.87869624920248       18.48791415749673       14.19322539910785
H           22.81363755245805       20.70239483935205       14.35190041020670
H           24.39777783293254       21.49873264356624       14.40780160098544
H           20.14435154047430       21.11278552616641       16.95484680893199
H           20.81435502038093       21.60524324589938       15.39452378627427
H           21.32803066635864       20.08936857621473       16.16081916495498
H           22.11795996870969       18.79864647116857       20.26175484206727
H           21.04164722851806       18.49794845308005       21.62509977645844
H           20.60705923581236       17.01985328533061       19.62939386031494
H           18.34562981590513       18.86542936521774       20.55209679441854
H           18.87334327732288       17.31799946063809       21.27471624401698
H           17.22524175256873       17.21986381061573       17.46466718520597
H           17.45767719245289       18.79802433468588       18.25587378114975
H           19.27556508076954       18.39656797953775       16.62060625589595
H           19.68531830885448       16.85873384346057       17.44125998707332
H           22.05366858145970       21.78195827011981       24.11737304267244
H           20.60150706367780       22.79491470766423       24.31831628556456
H           20.68802091695570       21.12402214101548       26.16528163261508
H           20.83297840458764       19.81370143203293       24.98439476997782
H           18.44291270015377       21.69871353440621       25.30845647339039
H           18.47954156496951       19.97424824484563       25.71556384186981
H           14.34772603014216       14.37788969474566       18.88437733690278
H           16.42498971984907       15.42174605296595       18.15734330417254
H           16.77408992966118       17.53753063146353       21.87249565652546
