151
 energy: -221.322138492321 gnorm: 0.009161506143 xtb: 6.7.1 (edcfbbe)
C            9.93262702831654       17.33117255216545       21.44824768292158
N           10.05585459517370       15.24520728145226       23.32603167282053
O           10.39773303301367       15.13083250370830       20.44304713578335
C           10.90665904113847       16.16457001852432       21.28543933209221
N           13.96742406857075       14.98534554408070       21.11970167245988
O           16.11693887598137       19.64860320882901       23.46243341399180
C           10.14106353232513       15.50484007820898       19.10535065296037
N           18.51457005308987       21.96302760818507       22.41899707971733
O           27.36882333579498       17.94685989783608       13.34101223773283
C           11.15294456709191       15.48717717628847       22.62218036964269
N           19.68373542985490       22.61051144573864       22.82170270050150
O           24.76248655167345       21.58046295707350       17.13048946758975
C           10.14701157249376       14.63842060630407       24.49388154316127
N           21.71733566706663       21.40606642769140       20.15136558674446
O           20.60983617792487       23.25234549265232       19.53229435323119
C           11.35338072803794       14.21931815142837       25.03435320944353
N           22.55990109904767       21.29602466830992       17.45621377272667
O           21.51096080188675       18.51104820644873       20.06287145385946
C           12.50361863773796       14.46943693521914       24.31210524372644
N           25.22223589274114       18.24825564782930       14.00202689438548
O           21.89958230214509       22.90791442921996       22.53604460683080
C           12.42867706214097       15.12358106584753       23.07977831581851
N           25.85653077588413       20.78939308214174        8.94710169057117
O           15.80214649383561       21.55899574105081       22.33413582847970
C           13.67909471905669       15.44284016585797       22.38679842636752
N           19.05375552788927       17.12330190710833       20.51455606230870
C           13.28704384486707       13.92557763489271       20.41731359737408
C           13.97175632190273       12.57843448796470       20.65225053872149
C           14.71928840521136       16.21578494865109       22.86269830056909
C           14.83197525022138       16.91749305978625       24.18020551884270
C           14.19789559020395       18.32481344270500       24.23795869876190
C           14.45442575349935       18.93257740186601       25.61843171167903
C           12.69021833788369       18.24447776212834       23.99393349883827
C           14.77664233862365       19.23510286099934       23.14852411444878
C           16.49020969355407       20.82950679120039       23.01753258480422
C           17.87059328478428       21.23104726261734       23.50373922175871
C           20.86260766954019       22.32425175968666       22.24646424108175
C           20.82030266214096       21.15749757510800       21.25441931576166
C           21.52546719421390       22.45967265778430       19.35027173027476
C           22.54351398801919       22.54995070675408       18.21042158638561
C           22.39192805296905       23.77574436746047       17.28100452073923
C           22.64126315560487       25.05242053132923       18.08130964968629
C           21.04639579442060       23.84566746273829       16.56252919242930
C           23.74593549840286       20.90187883959377       16.97856184342280
C           23.86817246623168       19.61317288639420       16.14693102997131
C           25.26510363000444       19.01118617812338       16.32469211249904
C           25.48116518756442       17.84128418922655       15.36491533663920
C           26.21465140643049       18.30027047370124       13.09764150471988
C           25.84858576530184       18.76041002723541       11.78196571303995
C           25.70932627130391       19.10273931358877       10.63678290720846
C           25.42405842933128       19.41669885511964        9.24017808276908
C           25.42620161292484       21.78139766435866        9.90981262635399
C           25.57335379174358       21.23649856154902        7.59806029659378
C           26.25808057368585       18.42918897549954        8.40488021124669
C           23.91755723911663       19.15987252569313        9.01102932396147
C           23.88093384766519       18.73206142896711       13.78453337995273
C           23.61565464554650       19.95154456035692       14.67195179802723
C           21.30037047550034       20.59464905578319       17.29013803968181
C           21.21619177458464       19.89232954576546       22.01483526809667
C           20.84763381378603       18.58470482040288       21.31251197790644
C           19.33411957200232       18.40882332549274       21.13145526723639
C           19.77527606970578       16.99291456888707       19.25800566623836
C           21.26711824964152       17.24967597977767       19.47681124171131
C           19.56222071539927       23.52415002112643       23.94436500706120
C           19.03490053856244       22.73377215034571       25.14274335392112
C           17.70006623545902       22.08641829618141       24.77598417672969
C           15.71262313877020       16.22939737147329       21.83631165207447
C           15.20779477288977       15.44894427786729       20.77260164102649
C           15.94424043777918       15.29601185887032       19.60845604383745
C           17.17929361022377       15.89658835136504       19.52493524882606
C           17.73837677830580       16.63252328743994       20.59132259577651
C           16.98278436799192       16.79819263088191       21.74512262966061
F           22.94647338294267       18.64639553317829       16.55812638183868
H            9.78372067045388       17.84470942665866       20.50332958783068
H            8.98591045008082       16.94863117298076       21.81450368676703
H           10.33067836955536       18.03838593824028       22.16983116793352
H           11.85865299652050       16.53078104463338       20.86370933845802
H            9.92286613936383       14.57648934368254       18.57838732070405
H            9.27662274148268       16.16834028677799       19.03085124842203
H           11.01658186517907       15.98960208217007       18.65739682984307
H            9.20904192527905       14.48690442567142       25.01009431426129
H           11.38619627239577       13.71594058081581       25.98679803266942
H           13.46898427185057       14.15613252213222       24.68035859752838
H           12.25073016397446       13.88095198905970       20.75672615916477
H           13.28857949379201       14.16349749253993       19.34922706845021
H           13.95620125682195       12.33145279128539       21.71116160879696
H           13.45209048670030       11.79907756940750       20.10365272923292
H           15.00665168491749       12.61649073207885       20.31923777847972
H           14.36091118046093       16.31874758562641       24.96089125254838
H           15.89197974210965       17.01457435113191       24.42214268418771
H           14.00854820813568       18.30947047378547       26.38829068671436
H           15.51959346709987       19.01656223469081       25.81018121492787
H           14.01148399259079       19.92343852756017       25.68079052144370
H           12.22932306468814       19.21819327643292       24.14882697765174
H           12.49129518305672       17.92464029301684       22.97653305393153
H           12.23050596192723       17.53554387828324       24.67659834070694
H           14.16683467033419       20.13860625221964       23.04246993346485
H           14.80002567079965       18.71444501599440       22.18707906140978
H           18.46251181570495       20.33898957362278       23.72577049703676
H           17.85267657775930       22.64144746302156       22.03803779347615
H           19.79664283613707       21.09712578820713       20.87492815978777
H           22.47626035826841       20.75875866910174       20.00593843231824
H           23.53625416178235       22.64280244813244       18.67528875777089
H           23.18622333483811       23.67764830228733       16.53079425707598
H           23.62598372867534       25.02992881580321       18.54414053290618
H           22.58778159223720       25.91947367143154       17.42890278936856
H           21.89269610489189       25.15533073314244       18.86115418706117
H           20.91150533582099       23.00150505631168       15.89602408027756
H           20.23765811473603       23.86740321917239       17.28736047069553
H           21.00304564769391       24.75321578095262       15.96977545644787
H           25.99643615784126       19.79944834575951       16.14648627701273
H           25.37747640762083       18.66761141042303       17.35330706882269
H           24.80108474496783       17.02322771947405       15.62181477894665
H           26.51223643999258       17.48884081425801       15.42281006175617
H           25.68284588149202       21.45236757967771       10.91444931719680
H           25.95909573909431       22.70893026217492        9.70235171035940
H           24.34619472237019       21.99108996798417        9.86719920262027
H           25.87009489097656       20.47638897531261        6.88113036405124
H           24.51144669647674       21.48944725979961        7.44145073922430
H           26.16790993998207       22.13468913177107        7.41009862438314
H           25.90295699063624       18.39062403915397        7.37880931879570
H           27.30028357011184       18.73583945150117        8.41311073789953
H           26.18395875725709       17.43204734556203        8.83114536499510
H           23.31964746823783       19.86781071257154        9.57940883891331
H           23.67805564057796       19.25733470523650        7.95631957142400
H           23.66768296468246       18.15391578288921        9.33528457473888
H           23.75727284456540       18.99696082802112       12.73398680136583
H           23.17783027393376       17.93387153247630       14.04348471417909
H           22.59039995857532       20.29113627415042       14.53157785434579
H           24.29345063774065       20.76123105275118       14.40251025025600
H           20.49172976965103       21.28653358969593       17.50747629181214
H           21.18521185569132       20.23182466792456       16.27192794645150
H           21.23550007741088       19.75141235670708       17.97931417413836
H           22.29466608833872       19.91982732370586       22.17763178040148
H           20.72982046583587       19.89812456792659       22.98966023236616
H           21.20551071796282       17.75148048199986       21.94103895043508
H           18.93037855271422       19.22891910210587       20.51296957188366
H           18.86754263473736       18.45920960300155       22.11283354215325
H           19.67761021049232       15.97453175657329       18.88593022140493
H           19.39259374635995       17.69934197181786       18.50434248519340
H           21.79408826337343       17.24650930996589       18.52221060170492
H           21.67627588133917       16.46410457163866       20.12629581292991
H           20.54894658399414       23.94522248267045       24.13215835156275
H           18.86830146315362       24.32738442941067       23.67745352115579
H           18.90816364865630       23.39611554843724       25.99825261066313
H           19.76167315307275       21.96249245103624       25.40599144059252
H           16.95674538428120       22.86330300488057       24.57727031792961
H           17.33765194357238       21.45894011292830       25.58939629665963
H           15.56541565568984       14.73147054914171       18.77032492512183
H           17.71882406454669       15.79592120641694       18.60011616780734
H           17.35915336738904       17.35015784582509       22.59079619057199
