151
 energy: -221.326700407764 gnorm: 0.004633431971 xtb: 6.7.1 (edcfbbe)
C           10.22469625307095       16.76341717765180       24.86105329103074
N           10.96643443552743       14.05213529796531       24.72575057274063
O            9.67044030283130       15.73137697791715       22.69788995773256
C           10.73104720232987       16.13725178107484       23.56164521590944
N           12.90522974981435       15.88389301270023       21.10509318566981
O           17.02153957453383       18.67253453019122       23.89050864394267
C            8.90741084878059       16.78712668218650       22.15604673508716
N           19.12162677861401       21.19562596992993       22.54730759968918
O           26.50132803641486       17.11405000146347       14.68398448181772
C           11.52566363444230       14.87798188645690       23.85252268150305
N           20.42488795670558       21.69128415699186       22.65522982671204
O           23.32318473393522       21.06605394271053       17.40624529993449
C           11.57744353725851       12.92547412695943       25.04178593461977
N           21.23640361765786       22.07950461059973       19.15166418875775
O           19.44135740223542       22.93748114028530       18.06940750156697
C           12.79442770899775       12.54632928245475       24.49619111835506
N           21.64550839758492       21.85449876658479       16.13967167256951
O           19.58265540976658       19.87084036719043       17.97720577031590
C           13.38460119685994       13.39927259124045       23.58356077079519
N           24.39678582510296       17.82561199395434       14.21574463203006
O           22.30138634604420       22.36131581193785       21.60931433940333
C           12.75698358188708       14.59867630240652       23.24095320527709
N           28.38820828146423       20.24388362267235       10.88383813324676
O           16.54555146785290       20.77207304021571       23.28718377175809
C           13.44591688167387       15.49990542120752       22.31289622028175
N           17.23262182827569       18.65184068294528       19.03780628075521
C           11.79161660005671       15.25489792121612       20.43930078753496
C           12.26045663608356       14.10324562274671       19.55078300480006
C           14.69761479237171       16.05615760174500       22.47403267787359
C           15.61044457143329       15.94956457634247       23.65348005063670
C           15.40477435450697       17.04051211775819       24.72915448447034
C           16.38668057511858       16.79777203654781       25.87776547111190
C           13.97344793808536       16.99842675270866       25.26437471871728
C           15.62597984629813       18.43723790321271       24.14009167047956
C           17.34602628667729       19.88603117020855       23.50729478028469
C           18.84824872898199       20.10095421627645       23.46655125474163
C           21.17473477081653       21.88216283164808       21.55841612038090
C           20.54122972588946       21.43690466083328       20.24010144926942
C           20.64165947317911       22.70461830228192       18.13205878530373
C           21.62080295360293       23.04794720943880       16.99707237493358
C           21.27657148073001       24.34609085723076       16.25940762009642
C           22.31465011088663       24.64356092392729       15.17891827969516
C           21.24082797796899       25.49158234423038       17.27113671299631
C           22.52400723814964       20.90482828975806       16.47887235612395
C           22.65564842048299       19.61785000162340       15.63720826426475
C           23.57828068563570       18.63269397578406       16.36012900365687
C           23.86929886419512       17.40705306077005       15.49445232049483
C           25.71420555877721       17.71811252637085       13.95344242880129
C           26.15298507817670       18.34492792289497       12.73380198212155
C           26.67060774206482       18.87965597178083       11.78698631016880
C           27.12798563084512       19.55686752277889       10.57658086533960
C           28.31771081223436       21.12229714977231       12.03321226968210
C           29.01048381066255       20.91511482591957        9.76174151948523
C           27.36715347348314       18.46207186428682        9.52283786561977
C           25.98395771672623       20.48463292408515       10.10967649210158
C           23.48642589762378       18.65557559752867       13.46489590923524
C           23.18681776503604       19.94454671178591       14.23783956001193
C           20.54326604552916       21.72977302650454       15.20957174431422
C           20.66271021051319       19.90528672082259       20.12711175822572
C           19.59053024445905       19.25514977755270       19.25163883707864
C           18.19881247541957       19.30330251005452       19.89982655674318
C           17.22288502012351       19.27520450597646       17.73048918973992
C           18.63595466622800       19.23670061819039       17.14522649906849
C           20.89910401254519       22.05234465083376       23.98216257719440
C           20.75176230266841       20.84994990348250       24.91056398128507
C           19.29366439159593       20.39855389380756       24.91465881211835
C           14.96451195794703       16.80028571487194       21.28492850904422
C           13.82509460688975       16.66974807899645       20.46058855395456
C           13.77631972616845       17.31512126874077       19.23387911894930
C           14.87963560796487       18.02783664787131       18.82017872790592
C           16.07135385090226       18.09251201612416       19.57511190994677
C           16.08467721534737       17.49316636884028       20.82944333086239
F           21.40964496411498       18.98523353708100       15.50734333568145
H            9.72459498799375       17.70732561981691       24.66308854395300
H            9.53471347042581       16.07448280297100       25.33882086782879
H           11.06340152961224       16.94346785581831       25.52656939979388
H           11.36507577590655       16.86112286664110       23.02143109761471
H            9.55720217659785       17.54961758518118       21.71159430148197
H            8.28751222289114       16.33756245332758       21.38327435657210
H            8.26590696460101       17.25147493555695       22.90933293590688
H           11.06369189545975       12.30751863748542       25.76520376109137
H           13.25857039069997       11.61511473930019       24.77773908462633
H           14.32504260789554       13.14474821142504       23.11705576686067
H           11.08952259441500       14.88531080564237       21.18813555940207
H           11.28488724779554       16.01044365809172       19.83320627912772
H           12.97555802642017       14.46203104373053       18.81392181566748
H           12.73987132891836       13.33539204037074       20.15368561915558
H           11.41159026559386       13.66401875003877       19.03566743696734
H           15.47488852601727       14.98280314291669       24.13993184590784
H           16.64065278545360       16.01241127562289       23.29860725169982
H           16.32070453976415       17.60011095519151       26.60827002942235
H           16.15208189813536       15.86012702679716       26.37354833791456
H           17.40576723054811       16.75043365947286       25.50540106029349
H           13.73046910357266       15.99846938076257       25.61411939982822
H           13.85635244215688       17.69272583635358       26.09286603116706
H           13.27078831327605       17.27075952865306       24.48225618561859
H           15.27986453039943       19.20768722265907       24.83677820337536
H           15.07821084638248       18.55990860706703       23.20117027043512
H           19.34918589210398       19.19623999896453       23.10998114951761
H           18.43844471473109       21.93714473404837       22.71922311355459
H           19.49861012758111       21.75602670236049       20.19708069417109
H           22.23155369717830       21.89633304466231       19.10359879727319
H           22.62656467978180       23.14569817216991       17.41812017682670
H           20.28279375502133       24.25956841901804       15.81531235396378
H           22.42251957191991       23.81630270123373       14.48410981508582
H           22.02346333683235       25.52919802991980       14.62172311504429
H           23.28396362893673       24.82880550745848       15.63645656013720
H           22.18762471896470       25.56451891335952       17.80204241470772
H           21.05630744388815       26.43202191552263       16.75911316509493
H           20.44859979107494       25.33427359767690       17.99868619970844
H           24.50598519589755       19.14968715294716       16.60589394847576
H           23.10371672996429       18.32851672959826       17.29349595230662
H           22.95134985479417       16.83646701782038       15.32883872387061
H           24.61284553405598       16.77240040758151       15.97941521102839
H           27.89418806984702       20.58338269782056       12.87920303248851
H           29.33065665408771       21.42792256011346       12.29338067428492
H           27.72222328023294       22.03063953392905       11.85373967164588
H           29.99377716599773       21.25725257889540       10.08256114548742
H           29.14730020607056       20.22076001043239        8.93828587513273
H           28.44566259596464       21.79075971091666        9.40875891876752
H           26.53776338750020       17.75950045829561        9.53322896572703
H           27.43917515391815       18.89378596988567        8.52919287707461
H           28.28230871048461       17.92531989604829        9.75493588044037
H           25.73378342835005       21.20622448819806       10.88332231266881
H           26.27794313854598       21.01433004192995        9.20789969311726
H           25.10205391295969       19.88915937266807        9.89154183106942
H           23.92492980709785       18.89115107166390       12.49552372413504
H           22.55753158843540       18.09619737021987       13.31794608186315
H           22.45643231883697       20.53501087376144       13.68760931712804
H           24.10050559217518       20.52900140085033       14.35483338643182
H           19.62801899642059       22.01906894861753       15.72790141392195
H           20.69335878317780       22.39099277623990       14.35615177571241
H           20.43008335471038       20.71168076215228       14.86200564118554
H           21.64573960827864       19.68619885913433       19.70444332054202
H           20.60788628234404       19.45722050566937       21.11708477347410
H           19.85238040135694       18.18973900840673       19.11473235556132
H           17.91003625980340       20.34964540579120       20.08714204628529
H           18.25835425817144       18.79091297132950       20.85588454770925
H           16.57863572338280       18.71822869031907       17.05362988897823
H           16.88553235527337       20.32265171661978       17.78812561986849
H           18.66118181289296       19.76543691101807       16.19393854384991
H           18.93727720779098       18.19026850210980       16.98942480433888
H           21.93876168580853       22.36196661432489       23.87660778325002
H           20.30697340120022       22.89543604031549       24.35477518134802
H           21.06280403885722       21.12502344149703       25.91684893432665
H           21.39098808680020       20.03976441757026       24.55744706393048
H           18.66340023354450       21.19229127132228       25.32354348348695
H           19.16271240280076       19.50333637140011       25.52100494405286
H           12.89795667331640       17.27538984417216       18.60741209596796
H           14.80804064403880       18.54994708609219       17.88093087614666
H           16.95871660103431       17.52276832391311       21.45953182212805
