151
 energy: -221.328483273615 gnorm: 0.004832271765 xtb: 6.7.1 (edcfbbe)
C           10.45715867072001       15.92112569141431       24.32786860280665
N           11.78080219043549       13.43871872966992       23.98333928368821
O           10.12100398649260       14.90838938679769       22.10553349242652
C           11.06954058837127       15.50342384662913       22.99152854842753
N           13.25478976570269       16.05480610710817       20.61707067048015
O           17.00992113799552       18.95276925287634       24.13269380241574
C            9.09606064899309       15.76907938629361       21.65685329572416
N           19.11786441321964       21.58918309768666       23.14951288328285
O           26.34462536325822       17.01158819628394       14.82198343317367
C           12.13299426754209       14.43983845755930       23.19027682650561
N           20.47176977574798       21.92859594552491       23.22532110603323
O           23.47577790134776       21.52879062656994       17.85867985762808
C           12.62077253816165       12.44032509261121       24.18818812445692
N           21.16821255311047       22.28951987698804       19.70347282481609
O           19.40244765247562       23.22045035453933       18.64749839317201
C           13.86691675142676       12.36715524022066       23.58645998827786
N           21.67156776145055       22.20717571789824       16.70850584664096
O           19.41745555633315       19.97408316557360       18.39386155221743
C           14.24846717416115       13.41192972633413       22.76564825422425
N           24.41296670084774       18.18321672658680       14.64533545151891
O           22.39617133497104       22.29698828131965       22.10904188440999
C           13.38716455417283       14.49121066304676       22.56129389925858
N           27.64461004037622       19.29026067964136       10.13500546377300
O           16.48167864622014       21.10509225354557       23.81300436301917
C           13.86811928967112       15.62922632251343       21.77252062828769
N           16.65813050880616       20.16296626016170       19.13949057538832
C           12.31724576671950       15.29003584628589       19.83125044099963
C           13.04926636835583       14.41349504577935       18.81587554215408
C           14.96184542962657       16.42350223433086       22.05400824018191
C           15.88629342574481       16.29636646873511       23.22312340544406
C           15.48206589490389       17.10003431542391       24.48084259774845
C           16.39817594308152       16.69614312533265       25.63905103863746
C           14.02846991328758       16.82677917144662       24.86206258606374
C           15.62014799621932       18.60301866355999       24.21765516323676
C           17.30168500206424       20.22374776551689       23.95852623474091
C           18.79892105148918       20.46120816013436       24.01343592846434
C           21.20485509843308       22.01228958972782       22.10455351103662
C           20.42873483537078       21.74152144893506       20.81442463297763
C           20.60108964414018       22.97413568178560       18.70695062627599
C           21.59022863134696       23.36930350906014       17.60158723895724
C           21.21209386630414       24.67812587905948       16.89866019571009
C           22.22744361248356       25.02323741460862       15.81129782213974
C           21.16630810916607       25.79864389514257       17.93796769839255
C           22.63898675465139       21.32331587001029       16.97481400241119
C           22.79438323757661       20.04186893871872       16.13023059820401
C           23.78521703493036       19.10201432687476       16.81907960810543
C           23.98670775235527       17.84239671343034       15.98314230111058
C           25.57358909088362       17.71069435400527       14.16040555541093
C           25.87184878407308       18.01860373073632       12.78467693332221
C           26.28357870539255       18.09562704562370       11.65527686300877
C           26.70361560265179       18.16999966294293       10.25671208867658
C           27.07924472051792       20.57242787239629       10.50341688974451
C           28.34357656937565       19.38546247349936        8.87116141328282
C           27.41150507463914       16.83732038210028        9.95958238168691
C           25.44328418254873       18.29147755724775        9.37424240404615
C           23.50336846099626       19.04507865151299       13.93039358914187
C           23.26946381102016       20.34787562115945       14.70637649458871
C           20.55114476640168       22.03673101094059       15.80768445252908
C           20.19671925227344       20.22825961695934       20.65684886588157
C           19.02655518976969       19.83090211727267       19.75389209754032
C           17.72705969091615       20.62059369118165       20.00164845215377
C           17.08268264030018       20.28284698854891       17.75645135672488
C           18.39174668378446       19.51216962738226       17.53691579629555
C           21.01431368307062       22.20371782087139       24.54712113820157
C           20.72520520685240       21.02966039139078       25.48233079160696
C           19.23019420969674       20.71161468846037       25.47044339497916
C           15.05046092855399       17.38001907196331       20.99705340681605
C           13.97454012769848       17.10984492639746       20.12131802425492
C           13.77400930553660       17.88049316333294       18.98258477761923
C           14.67532275053435       18.87837115201175       18.70796044842623
C           15.80853771638032       19.12363633253334       19.51754131166938
C           15.97350404164102       18.38284543216981       20.67992220364420
F           21.56910157268344       19.36122853511282       16.05883663446564
H           11.23915650633324       16.29319276964489       24.98132515621357
H            9.72150453330574       16.70689722591117       24.18066227626852
H            9.98753446672324       15.05938252037806       24.78966624311617
H           11.50801485736471       16.38578093518252       22.49570819563629
H            9.51293773341414       16.71384157591473       21.29210135698602
H            8.60717428293198       15.24300960502559       20.83975838369612
H            8.36551246760605       15.97220290879186       22.44311821684581
H           12.26960387093999       11.67032989266692       24.86153863469256
H           14.51533188160564       11.52330953753734       23.75746153609510
H           15.20662336255018       13.39936562809020       22.26672838769175
H           11.71562806692382       14.66896500677856       20.49743352902973
H           11.65325674401696       15.98757583456418       19.31423227527612
H           12.33504402123297       13.85577854825321       18.21852164682999
H           13.65787163022098       15.02936809927672       18.15738075221044
H           13.69992700298901       13.71034433845364       19.33093872689199
H           15.95095231557223       15.24779247227984       23.51687548408504
H           16.88197704158724       16.62537817282781       22.91882263508797
H           16.21413393248055       15.66045931089645       25.91628715748155
H           17.44116075447705       16.80309660608534       25.35657218101064
H           16.20832345383748       17.32234291133778       26.50882706677357
H           13.77848570423217       17.33749618341861       25.78851115360941
H           13.35960561934001       17.17622961174330       24.08027868954893
H           13.87210810274654       15.76043490938652       25.00167491426253
H           15.17351704388907       19.18531647971184       25.03051780526786
H           15.12553595896904       18.88812166851562       23.28388671953026
H           19.31063195460425       19.56963255930339       23.63669915076644
H           18.52785193700852       22.38157820281572       23.40786552528351
H           19.47546931693191       22.26920338256259       20.87024430531728
H           22.16538701497922       22.11264517906410       19.70277738986379
H           22.58425793504645       23.48656352105314       18.04518693036165
H           20.21419281229874       24.58055191500435       16.46518076291050
H           21.96893888372733       25.97433957477540       15.35944525002993
H           23.22205414273198       25.10750036802944       16.24368944024551
H           22.25933446722780       24.26536200747811       15.03515897373563
H           20.41127226515259       25.59024716354479       18.69198850123263
H           22.12978189847967       25.90471119698469       18.43148835250524
H           20.91724950055698       26.74064142053528       17.45663371220509
H           24.72688731474359       19.63236987537015       16.95461394983579
H           23.40092697448402       18.83684738809696       17.80414208137338
H           23.04337823780818       17.28829180123664       15.92420208042059
H           24.75248566049073       17.20579366741949       16.42907965092662
H           26.51396954824932       20.46890399707369       11.42735219991926
H           27.89852097729711       21.27039649068973       10.67642057338310
H           26.42609467090469       20.99570365835383        9.72582982404433
H           29.09320858543179       20.16948354965696        8.96703138987798
H           28.85623607773320       18.45464573592758        8.65116846241803
H           27.68640608833245       19.64460973968983        8.02721909111269
H           26.82536543345265       16.01801909347861       10.36885033640747
H           27.51558932157762       16.68502828759505        8.88894705160193
H           28.39107123469663       16.82727389983048       10.42947702850582
H           24.85446503715598       19.16057940149741        9.65564935490329
H           25.73085915082790       18.37868774396102        8.32952395133767
H           24.82934585824319       17.40317691007792        9.49379632538119
H           23.91735126490344       19.26249630850397       12.94513688043254
H           22.54640673436189       18.52394906789910       13.81104705434925
H           22.52954410483466       20.94864498790563       14.18003226559194
H           24.19779705378940       20.91475411594743       14.78168318007634
H           20.47994121843845       21.01923485687250       15.45038616161255
H           19.63681716055438       22.26736344979269       16.35280220358724
H           20.64180669307456       22.71442371784693       14.96140294769206
H           21.10493078724307       19.78572334413973       20.24145767379768
H           20.01889729850134       19.79514213144138       21.63717066055727
H           18.81840434979658       18.75834508290831       19.92683684666139
H           17.90485703605769       21.66608362724528       19.72916208802608
H           17.43042163069016       20.57363427576513       21.04832642154098
H           16.32576125708119       19.89721966634699       17.07895698893068
H           17.25274620270941       21.34429246838950       17.54895112667015
H           18.76419133647135       19.64112408008959       16.52168196793713
H           18.21599104755529       18.44085982004949       17.72637631997062
H           22.08470972763266       22.36992841271909       24.42798746083803
H           20.54709420892778       23.11715058135262       24.93145638696748
H           21.04783008355011       21.28519683621971       26.49045239403476
H           21.28742816375550       20.15593914913919       25.14952666747836
H           18.66120262159054       21.55480348301494       25.86936815912804
H           19.01795934553838       19.83069608447394       26.07457726529053
H           12.93013238076023       17.71660737400248       18.33010418811785
H           14.50196187041326       19.50859716898690       17.85064405860039
H           16.81246085794145       18.55452435818365       21.33680163125225
