151
 energy: -221.327322837475 gnorm: 0.009246148362 xtb: 6.7.1 (edcfbbe)
C            9.95772246490234       17.46695217017785       24.08367056653967
N           10.47481255482018       14.79186226413739       24.78929567884948
O            9.67901993071703       15.90379118074158       22.20072908837468
C           10.61283703169358       16.49027335720286       23.10345291381140
N           13.12719287148506       15.51282097084786       21.23864797072741
O           16.71998136681717       18.93733562108882       23.94702341137315
C            9.09644031569898       16.80144124896360       21.28140878305347
N           18.92026771482351       21.34251863125471       22.59964128984749
O           27.03447506104625       17.61625682760712       14.00644128816981
C           11.23975655757998       15.32559782187289       23.84840219008039
N           20.19938439192672       21.87451667217628       22.78601658280979
O           23.72876494115046       21.03971842151954       17.44368447671349
C           10.92104100389728       13.76427558631950       25.48734136032155
N           21.35179441420778       21.63867771828740       19.39139050652254
O           19.54466473257925       22.55820195555862       18.39189793062649
C           12.16875686247150       13.19588164545759       25.28177139361723
N           21.81004988490795       21.58963163879870       16.41477272728654
O           20.23937641775721       19.00894996904715       18.47039296349816
C           12.97541055726084       13.74767597134673       24.30441828776635
N           24.81648764973130       18.09989221005520       13.92205422482077
O           22.22155935605845       22.31999858554249       21.89762083152730
C           12.52546601708022       14.84011604467741       23.56163573829832
N           28.00242038474991       20.70093301834157        9.93186880897644
O           16.26816814652564       20.97041771576610       23.12605641273864
C           13.43363462267144       15.43941676195572       22.57953374587375
N           17.81479730657017       17.80932039217634       19.36889324353289
C           12.11323974463028       14.74033660321778       20.56596034099401
C           12.65329373252532       13.37181752326590       20.15226830352504
C           14.67493679410040       15.99394384120286       22.81674950890393
C           15.38935680937495       16.14265325942099       24.12169892692383
C           15.05301490288305       17.42834651151557       24.91075505183478
C           15.91094466677424       17.47112363672252       26.17804269584695
C           13.57261116726976       17.44521721858867       25.29193651272026
C           15.31158641869517       18.67730848939695       24.06236412580408
C           17.05512216795581       20.13159058225018       23.51313154736336
C           18.54246773856866       20.40250735554064       23.64518086779113
C           21.10268510326835       21.82940605370902       21.79499638627872
C           20.64227200112421       21.10488065197580       20.52871991386196
C           20.75200525076309       22.33971866015683       18.42519884767101
C           21.70466932666960       22.75600643027504       17.29757020623703
C           21.25998168192641       24.03327538708017       16.57109744524854
C           22.20587984429699       24.35149082214202       15.41431736009206
C           21.24874812672828       25.19201602510294       17.56656827931731
C           22.86436262114177       20.78737040645253       16.60124075907798
C           23.09079713771370       19.57975008576520       15.67098229023208
C           24.24300460235519       18.72552245755541       16.20665703111450
C           24.55642284409999       17.57855830845101       15.24586179676607
C           26.07080325921109       18.13213969700058       13.43513643054389
C           26.22560186658112       18.78152628943395       12.15732517105571
C           26.52197366012757       19.29779471980439       11.11010442609566
C           26.77455186160233       19.90514135314795        9.80481310129752
C           27.90067023290957       21.77849361351775       10.89416862949230
C           28.57882529074080       21.17609174337948        8.69070831453082
C           26.98293310851560       18.73595950170614        8.82755267598760
C           25.52658947279948       20.71038834971816        9.38671672882086
C           23.70828481094273       18.83262002919223       13.35990530658889
C           23.38299957793483       20.04441287169480       14.23964683553151
C           20.64057732314177       21.32522064707240       15.60299499036217
C           20.90643117935238       19.60267576042514       20.70669166627478
C           20.03430013027959       18.69512369495625       19.83859155297554
C           18.53922952257154       18.76824024657379       20.18470189825690
C           18.02402839679514       18.10955498505914       17.96492778206910
C           19.52491680989396       18.09770849569244       17.66637414517047
C           20.49114108586199       22.48087688778743       24.07543818003911
C           20.21161397477660       21.46540009381858       25.18179772303048
C           18.77176698300758       20.97062804388719       25.06040322945606
C           15.17335334781705       16.42507589342692       21.54916397097682
C           14.18364258437008       16.10112114793572       20.59410897462380
C           14.36874958853294       16.42467695683627       19.25806906094257
C           15.54066459984205       17.04472835356188       18.88760368913329
C           16.57664294967187       17.32149720603972       19.80507227075256
C           16.37254008678511       17.01175413867501       21.14436965135315
F           21.95542002208632       18.75836558791258       15.64502911709321
H           10.68366172165732       17.76210310095742       24.83651346531895
H            9.61068518055293       18.35732362890523       23.56575757738869
H            9.12072583066465       16.97529219167351       24.57129001291667
H           11.38529883673213       17.01910336327079       22.51765969195730
H            8.41176818422877       17.49662355664187       21.77286748610003
H            9.86896020386698       17.36858811954531       20.74753620042428
H            8.54074590298907       16.18505940926645       20.57761924490676
H           10.24601620757081       13.39140338580351       26.24666678568211
H           12.49591504476802       12.35148359382753       25.86662998904078
H           13.95251510552454       13.33480672936658       24.09878753614473
H           11.25396560003447       14.61909908851373       21.22913409444028
H           11.78936145920196       15.29581654230653       19.68212640952170
H           12.96981864108783       12.81336536378481       21.02972643805890
H           11.88188277729012       12.80748224428119       19.63793989526845
H           13.50814125594779       13.48888080771127       19.48987843952809
H           15.15857368238058       15.29477326084994       24.76789901338805
H           16.46253391721908       16.13776710034547       23.92334011823963
H           16.96693209447432       17.43349702403738       25.92411424991326
H           15.71900963098386       18.38513189888374       26.73545390295416
H           15.67479048237648       16.62277946678616       26.81445187160975
H           13.30835763582233       16.53988925870379       25.83252596892931
H           13.35004502415912       18.30172662890386       25.92320835325144
H           12.96098408315376       17.50489110250492       24.39738295707924
H           14.84921795147700       19.55742399593206       24.52168779645625
H           14.89208500113038       18.56313632624045       23.05683311577143
H           19.10953834275284       19.47578608482102       23.51595645333876
H           18.22259840606437       22.09034436830446       22.57083630242768
H           19.58296919069866       21.30263175847238       20.36194989373973
H           22.35379747669899       21.51631952355469       19.38289241817266
H           22.70224121599977       22.91971260836551       17.71687180421058
H           20.24085720619012       23.89512734266842       16.20021694681250
H           22.18671837444377       23.57797762984548       14.65152394178806
H           21.92221018045253       25.29449149180780       14.95539382599211
H           23.22699660226958       24.44040429802347       15.78177169375469
H           22.24620299253132       25.37050385089071       17.96081238188838
H           20.90218100276338       26.09715093014562       17.07691950342471
H           20.57997516905037       24.97772081550794       18.39761208921027
H           25.11722816768967       19.36552375279323       16.33178147527809
H           23.96579580762645       18.33628980132374       17.18725158407458
H           23.70640601836669       16.89115992757394       15.19330761491928
H           25.44362645218857       17.03805733708633       15.57985460069292
H           27.40880484325805       21.41752034455497       11.79874836250504
H           28.90939150707355       22.10335242019046       11.15571149634069
H           27.34701966928037       22.65069390967817       10.50972768782385
H           29.52871251516081       21.65070093013452        8.93107500520771
H           28.77643189874042       20.34300467907358        8.02429497349445
H           27.94865992500781       21.91495432584933        8.17105232563812
H           26.17371822351027       18.01854323884827        8.94713045396293
H           26.98197516889645       19.08806600183782        7.79942658535619
H           27.92452595887468       18.24045389732748        9.04823825831130
H           24.67075139192939       20.04605324408445        9.31809427482901
H           25.30309104038434       21.48569189491902       10.11230881536431
H           25.68930351939342       21.16760551759186        8.41676336951319
H           23.95560801326689       19.15077237105937       12.34630503981533
H           22.83912431045812       18.16516620295255       13.33070697329376
H           22.52429392429961       20.57271480782644       13.82930552281261
H           24.23648561993224       20.72362643040061       14.27493080343191
H           20.57972203154922       20.28269470196468       15.31476273593117
H           19.75558208564844       21.55371883251405       16.19709154004869
H           20.63817564955362       21.95472834413497       14.71214757103012
H           21.95411893573959       19.41572828659675       20.46392920418698
H           20.74241940123964       19.32953709821037       21.74818802932273
H           20.35950662715536       17.65116756878777       20.00195854929044
H           18.16653953158328       19.78862918089366       19.99401161977680
H           18.40980442165620       18.54896088784396       21.24164569868241
H           17.56246863772256       17.34527640162907       17.34439504334540
H           17.61562133866050       19.09922166586483       17.70477188631263
H           19.70685989076805       18.38916273766885       16.63264915362307
H           19.91781757006691       17.08291395256326       17.83104250674134
H           21.53774355850890       22.78497956033148       24.05774861177266
H           19.85812225372538       23.36590650891552       24.20198523519583
H           20.36299209143188       21.93540493302983       26.15246267072739
H           20.90298370757533       20.62803297671664       25.08847843583776
H           18.08368370946732       21.80493608060825       25.21461578837132
H           18.55894733420089       20.20361559542023       25.80221269576751
H           13.61166595244113       16.21358030706382       18.51774035737329
H           15.64587862596500       17.32699311902995       17.85414532816947
H           17.13032308667536       17.20285031470103       21.88758111100404
