151
 energy: -221.318119946321 gnorm: 0.008000755692 xtb: 6.7.1 (edcfbbe)
C            9.65539447614660       17.40973913552467       21.96698097105284
N           10.05357334997383       15.17139396765113       23.63938938578474
O           10.05855106012316       15.32179255985292       20.72711951802712
C           10.63359596403848       16.29422283114669       21.59970457306502
N           13.70955583289670       15.15952583212796       20.98922135126816
O           16.21282508131631       19.63602989403838       23.34538222486208
C            9.72344154704370       15.78966786941055       19.43950982316603
N           18.73740811579146       21.77063875470984       22.25125791101313
O           28.12168463124389       18.93672859842363       13.54384275511754
C           11.04940165473474       15.51726569867554       22.83581821217119
N           19.96721980885203       22.32411346556031       22.61673346211105
O           24.94669784082835       21.55062531482739       17.39664132577633
C           10.30772971886479       14.46809874245500       24.72793388598198
N           21.71947116989104       21.08722089714265       19.78011325401161
O           20.81046489663030       23.11039210733087       19.45843910929371
C           11.58206378750635       14.05040177363223       25.07720092527621
N           22.76510377713705       21.02103546966032       17.27521020250272
O           21.41107259799308       18.22621728745995       19.65182316505958
C           12.62816650988348       14.41342677826831       24.25001049940968
N           26.08415427750898       18.26033457930827       14.29058073517752
O           22.17858277608974       22.49906047671431       22.21201526363747
C           12.38188421107869       15.16993828808397       23.10297925578183
N           25.63658708186275       21.22572010941209        9.39946850175949
O           15.97627400113070       21.59196831273618       22.27827543279376
C           13.53503545180407       15.57233949697975       22.29164309620037
N           18.85581363682865       17.04129793942537       20.14181619704584
C           12.95306768539986       14.14387941586245       20.29930415931665
C           13.58831004474854       12.76511411030268       20.47243540207519
C           14.61536976839665       16.32602040550566       22.70227245893538
C           14.84267847287241       16.97114829403754       24.03295949485810
C           14.27085182096474       18.39854863842126       24.18515405649514
C           14.63773388699933       18.93663322729090       25.57113060568107
C           12.74926835865260       18.38069894308502       24.03345814727640
C           14.82603210983299       19.32978145989732       23.10373495115913
C           16.64361356469059       20.80129456836644       22.91450171140229
C           18.06488700386657       21.10533920307396       23.35872530175257
C           21.09453050599287       21.98641150556988       21.96748096474670
C           20.92256700874314       20.84877035171459       20.95957970188746
C           21.56983494348940       22.22262478975748       19.08725509285881
C           22.43730165684208       22.33117812076268       17.83411528897474
C           21.91390413215427       23.30725453538778       16.75155590731867
C           22.31117953043925       24.73428651578776       17.12920690748737
C           20.40698761717211       23.24540268182371       16.49829341708740
C           24.06403670009569       20.75369630492435       17.07518325761978
C           24.48646154239258       19.44068093115322       16.37717312410914
C           26.00171412851465       19.25761046904329       16.51146485938147
C           26.51551545585505       18.09417687828302       15.65968719947795
C           26.91266057512535       18.78940222911618       13.36500547191675
C           26.27160821568829       19.16031721978809       12.12901458714302
C           25.79530673371313       19.57797074674262       11.10495639913253
C           25.06373324631416       19.97162080360671        9.90296049255456
C           25.64068407888338       22.29881963795819       10.37341274835525
C           25.09294478004069       21.68771513028566        8.13788620954045
C           25.26706613637521       18.84290501173129        8.87863327492431
C           23.56967010006318       20.05555413035584       10.28988556941164
C           24.64779667836432       18.25769819531264       14.16063428816659
C           24.06047741244467       19.45887913677805       14.90623652844395
C           21.64537050960646       20.19079836936718       16.87356106431832
C           21.32773178876248       19.54671205497043       21.65097137815688
C           20.83553960805371       18.28245709894102       20.94221475129526
C           19.30230389436500       18.20751158874964       20.88659443496554
C           19.50035245686171       16.96463282004652       18.84218706738283
C           21.01673080134429       17.03202243827152       19.01374095435374
C           19.96271857716365       23.24042501785684       23.74374379851245
C           19.38560350243464       22.50892263182313       24.95567696225820
C           17.98868795591528       21.99211808445819       24.61829118580791
C           15.52706251586244       16.35355423111301       21.60307419316060
C           14.93111834597070       15.60776192986631       20.56345208798313
C           15.59587877031644       15.43677099072219       19.35841215041368
C           16.86041459454016       15.96447239481352       19.22356551985377
C           17.51212109765268       16.65999556453119       20.26524391710613
C           16.80890494691060       16.87914442271730       21.44452052103449
F           23.87562057649442       18.34832622292629       17.01385728175452
H            9.40028798978926       18.00014400700570       21.09053373192560
H            8.75728270982216       16.96732768320130       22.38816753484013
H           10.11079712981792       18.06206603899579       22.70678343453147
H           11.52408113679592       16.72521554891689       21.11109844466698
H            9.43621963760848       14.90471198738627       18.87308848265365
H            8.88316249107528       16.48782738456345       19.46773326793611
H           10.58471381749981       16.27220405591380       18.96145962689540
H            9.44660040175403       14.22824207279466       25.33611375491209
H           11.74867199659661       13.46005730869014       25.96362430916259
H           13.63859232415662       14.10388675835430       24.47224498494976
H           11.93254027598601       14.13304430982489       20.68403194353841
H           12.92225954611444       14.40823639317838       19.23909756763920
H           13.59753332863055       12.48522212589859       21.52291026774435
H           13.01828437688667       12.02572098352733       19.91846982831958
H           14.61230297675938       12.77065857813497       20.10614161701833
H           14.39617928748324       16.35902529937594       24.81852463888301
H           15.91888544770306       17.01763853033912       24.20716277442142
H           14.18147010285344       18.32179224651628       26.34196422883572
H           15.71551660820806       18.92824596902302       25.71103101963349
H           14.28056524525604       19.95747429410939       25.68788611546407
H           12.33592826283427       19.36933120944792       24.21929281079767
H           12.47420212994563       18.07297007676588       23.02880296658225
H           12.30786904269738       17.68443304216820       24.74150135800343
H           14.27650182649706       20.27824589136593       23.08985769637629
H           14.74713060140206       18.86629888205849       22.11596857166196
H           18.59510015170823       20.17509461939847       23.58330213654159
H           18.12344896829934       22.49555006159495       21.87646882573782
H           19.86659892928193       20.84000848440109       20.67340181450055
H           22.37933150184917       20.37663689777971       19.50117234356194
H           23.39431789098154       22.74003628340773       18.18889675650865
H           22.43870291591159       23.04273833978193       15.82522678210109
H           23.39397442861047       24.82228977247692       17.20587494209790
H           21.96154563630716       25.43522687873126       16.37440760387216
H           21.87239166882193       24.99931550117529       18.08643576412179
H           20.08441602858953       22.26462098394775       16.16657617335922
H           19.86717745893836       23.50493198674558       17.40554405718057
H           20.14988834620744       23.96938932608218       15.72990324297193
H           26.48172970479690       20.18745477437904       16.20434529317009
H           26.24551526013865       19.08700906738233       17.56050757135955
H           26.12050437239759       17.14851152119058       16.03866919198714
H           27.60592041751829       18.07012398957451       15.68015573600211
H           26.05710780626359       21.93917509065706       11.31309441136753
H           26.27689047060624       23.09844930268904        9.99781085111734
H           24.64014707033239       22.71806020916618       10.56029828875986
H           25.68235622676331       22.54668441984752        7.81710889080845
H           25.18522940502378       20.91303809957860        7.38295298570735
H           24.04183735689231       22.00614159479096        8.20728941132993
H           24.54059632828094       18.91795476688423        8.07508767613645
H           26.27206024065919       18.89594864074301        8.47009374273159
H           25.14112722008830       17.88054162638576        9.36830772565987
H           23.42124276379731       20.76370528648427       11.10138294818587
H           22.97892301582057       20.36559682497550        9.43295476874081
H           23.22608446771945       19.07755466349169       10.61392711982905
H           24.37344878179186       18.30065505578209       13.10749424548856
H           24.26837731915767       17.33047454950272       14.59834006407279
H           22.97774705259034       19.43513367853455       14.82170902804741
H           24.43429176181000       20.38383948578918       14.46393100165985
H           20.81373862776496       20.39264432758647       17.53956801629327
H           21.34251212979479       20.42105139374250       15.85241717374505
H           21.88937735135434       19.14005261666253       16.96057142686224
H           22.41607839899839       19.51843636688584       21.70744845921664
H           20.93602584591013       19.54903331327449       22.66624514848290
H           21.19161366787638       17.40965020265665       21.51705528729963
H           18.89346266017126       19.12587814707639       20.43710772638253
H           18.95216193147271       18.14035921712056       21.91501898014560
H           19.27016368586693       16.01015206316465       18.37477506361294
H           19.17577951759738       17.78595030447461       18.18565251029483
H           21.51711049044267       17.01990204425188       18.04503585013597
H           21.35423762977027       16.17038867337982       19.60730847075384
H           20.99288512722833       23.55608846268164       23.90839486224627
H           19.35290808655658       24.11538648288927       23.49341695064822
H           19.34321366320706       23.18494969008990       25.80793694890324
H           20.03771052422290       21.67000639248789       25.20973610003818
H           17.32280219161528       22.83380353934863       24.41218640854947
H           17.57605680942210       21.41768353919395       25.44670433318686
H           15.14692093204940       14.90144687410206       18.53605483562721
H           17.34663860035081       15.82575627442280       18.27315304794929
H           17.22743437161516       17.43333898010266       22.26665114231771
