151
 energy: -221.326591028008 gnorm: 0.007413933336 xtb: 6.7.1 (edcfbbe)
C           10.18992252150525       16.79659236443113       24.89978847474518
N           10.94027049851071       14.07535508414625       24.84548888291410
O            9.62166432899170       15.68529545280616       22.78093178188502
C           10.69013518045027       16.12542825650664       23.62062129617837
N           12.86204798907170       15.80868706852877       21.16225376740189
O           16.95769805069589       18.68010080961011       23.89552628580110
C            8.87837024248530       16.71924246121404       22.17156274675214
N           19.09189045366633       21.18452241712327       22.58007771016470
O           26.64222662365515       17.25627822948443       14.55871748202538
C           11.48948841226030       14.87754407705353       23.94497774173231
N           20.40715643429296       21.64952590347889       22.68048361098340
O           23.35553211016058       21.09134887340275       17.48533762208071
C           11.55642585979383       12.96185790912728       25.19108341446265
N           21.20418572823333       22.03119680939718       19.17313271364880
O           19.45409512516289       23.03940112927293       18.14473671277526
C           12.76553732257007       12.56674951490321       24.64304462703301
N           21.67892700788835       21.88354848462128       16.21740977159703
O           19.49230514132292       19.87675942443507       18.01749165395841
C           13.34683330939073       13.39543050389040       23.70171779872382
N           24.53897724729834       18.01460531145145       14.16203494558589
O           22.27831227493338       22.30845179747965       21.61830188741788
C           12.71689819009248       14.58460580054158       23.33300833888854
N           28.48827357667222       20.14724436048333       10.53367937875029
O           16.51189696342916       20.80547233577952       23.34941048176536
C           13.40078354190805       15.46626518552704       22.38295872557514
N           17.13560039878698       18.66731252805953       19.08315842942377
C           11.75281198188231       15.14906088283398       20.51946429311532
C           12.22590110163315       13.95460340095137       19.69203696463419
C           14.64261695776356       16.04614913433605       22.53658731344007
C           15.55548157069069       15.96928265214664       23.71852711860702
C           15.34133172625476       17.07300744507334       24.77773901395344
C           16.31837208094969       16.84716351506613       25.93387646024615
C           13.90650227942470       17.03620697662673       25.30455056571822
C           15.56420730144435       18.46341213450954       24.17372841592702
C           17.29748494613240       19.89932511253645       23.53755366142850
C           18.80361797488451       20.08802587363222       23.49121615282105
C           21.14677874989415       21.84014801778111       21.57732372509431
C           20.49676451006805       21.40528535913788       20.26235209148099
C           20.64064907284483       22.74109242448396       18.19402415139814
C           21.64360251734687       23.07510311834464       17.07471264761519
C           21.34092532349621       24.37111418583198       16.31542170179516
C           22.41259196192368       24.62256327485961       15.25387739457251
C           21.30988037254588       25.53418847998256       17.30672001356647
C           22.57208017544808       20.94335600827377       16.54146208138340
C           22.74654109768797       19.69268035782443       15.65541290467678
C           23.70446910434422       18.71276421740425       16.33808142416911
C           24.02332740485725       17.53186398248851       15.42277104126180
C           25.84399078716771       17.88367485921925       13.85905656422259
C           26.25663215263820       18.50250454779732       12.62582509161009
C           26.73590978126948       18.96919516517908       11.62487923467061
C           27.16291782721945       19.54460851213774       10.35253278861832
C           28.57578686909313       21.07880955178084       11.63842059075055
C           29.07298355509767       20.71774339278948        9.33871513591243
C           27.25271671200683       18.36607787342683        9.36590506437566
C           26.06457171736121       20.52925272208985        9.89558266385862
C           23.61084478826427       18.85352092107099       13.44372505873728
C           23.26993104991893       20.09519420523990       14.27319577442658
C           20.57632549990111       21.75154010342042       15.28823195220415
C           20.59269709060995       19.87115365738269       20.15124695233527
C           19.50609881716481       19.23819277505957       19.28071987190500
C           18.12108821900004       19.28238047559115       19.95087240640490
C           17.11744170740460       19.35392520380157       17.80753398795152
C           18.51422781238941       19.28904985442080       17.18713284415917
C           20.90523230092613       21.98628048442299       24.00560287063152
C           20.73020949069602       20.78348167055671       24.92856868039426
C           19.26015819507163       20.37245803310765       24.93812964384728
C           14.90362514086009       16.76617162773187       21.33186385611076
C           13.77491283823827       16.58964743319420       20.50160531483010
C           13.73079516059250       17.19227638954196       19.25359311443712
C           14.81933065921608       17.92568629621003       18.83618238634535
C           15.99362739981460       18.06126540749843       19.61010388374732
C           16.00781761448479       17.48525494310253       20.87607236805658
F           21.52299174271242       19.02304579940413       15.49985903284054
H            9.68780183740406       17.73317474912742       24.67020963068501
H            9.50005690984037       16.12491011328423       25.40172324672567
H           11.03078289635950       16.99866378925706       25.55610635982163
H           11.31816461689027       16.82999419175087       23.04871946576469
H            9.54166194892095       17.42739802714486       21.65890635520472
H            8.23411291104966       16.22799339341284       21.44546485255024
H            8.26370654329191       17.25938886740612       22.89754194490743
H           11.04775872326013       12.36211778649369       25.93302372514387
H           13.23353217991695       11.64199212589511       24.93903279317428
H           14.28195782440120       13.12882264176706       23.22997393701824
H           11.04701220247429       14.81350404926778       21.28224601553207
H           11.24850445281280       15.87510327094463       19.87599097081940
H           12.92279613313897       14.27934857571081       18.92340323825400
H           12.72844836673164       13.23358571416373       20.33238683828413
H           11.37680509337704       13.47206769530185       19.21908265513942
H           15.42893986883958       15.00794526239745       24.21858621178599
H           16.58543130525624       16.03538306028636       23.36270444364068
H           16.23360373305165       17.64855115953329       26.66359137270659
H           16.09602952291914       15.90571708953622       26.42851497443365
H           17.34039201530895       16.81655124772974       25.56787310923114
H           13.64732605828681       16.03070927203885       25.62346849219772
H           13.79527393687178       17.70917399988979       26.15134080262396
H           13.21350618185159       17.34131636347052       24.52613493009306
H           15.24026658414628       19.24311241590923       24.87323657358836
H           14.99692701787804       18.58384802668926       23.24395493990487
H           19.28860499502181       19.17830854400216       23.12628056938881
H           18.43096972268976       21.93819053732151       22.77119788385129
H           19.46055737077411       21.74472092355656       20.22166469415968
H           22.19496877734305       21.82323925631883       19.12258897980414
H           22.64021264785250       23.16576291820681       17.52018480036688
H           20.35568314662239       24.30118701654678       15.84920078626755
H           22.50881130989506       23.78306274044147       14.57228513393415
H           22.16357414881571       25.50820514482967       14.67772760720612
H           23.37681827147685       24.78212040545618       15.73037573530104
H           22.25336498290098       25.60632122452494       17.84348157440410
H           21.13958525028816       26.46763225707213       16.77774083341956
H           20.51043392683625       25.39619796640816       18.03019110458109
H           24.61939005835010       19.24821216505830       16.59391694808234
H           23.24947137242991       18.36007074296740       17.26419539496873
H           23.11860277752947       16.94781747285614       15.23363045753192
H           24.78153320236751       16.89431637608415       15.87964622872965
H           28.12995905017224       20.63557488057196       12.52650103641943
H           29.62901059302972       21.27142296831732       11.84101752110444
H           28.08398005917568       22.04339573592363       11.43519029445197
H           30.11562934862339       20.95042237721468        9.55565075693370
H           29.05050241692492       19.99791700794673        8.52589777631870
H           28.57833661361655       21.64604548562897        9.01472360996210
H           26.37161718916396       17.73733074090914        9.46818887133761
H           27.30431245239639       18.72056763530444        8.34060135247117
H           28.13355319817985       17.77421060593728        9.59364905150873
H           25.95924293360442       21.34251443444716       10.60969726084805
H           26.31339127113106       20.93991329185051        8.92079177494496
H           25.11542943492276       20.00630853661469        9.82232112537303
H           24.05146023904076       19.14624126551708       12.49032994135102
H           22.69795922643247       18.27719466857898       13.25978940353879
H           22.52234479525501       20.68701923466525       13.74740709878805
H           24.16447332555483       20.70272840387659       14.41984940977963
H           19.66053642766783       22.03981719067384       15.80688211350295
H           20.71922151238972       22.41019673265047       14.43161321016225
H           20.46687126627265       20.73105909209310       14.94711578292976
H           21.56942843173588       19.63820015627840       19.72105021961141
H           20.54054863349117       19.42505092832690       21.14135924158634
H           19.76035580190303       18.17338316800433       19.12532668295406
H           17.84753737544202       20.32687345500749       20.16887405393095
H           18.19362156158249       18.74565472499810       20.89188828560986
H           16.43034788242399       18.87191711748562       17.11922312799080
H           16.83401448447812       20.41060662195595       17.93371782857277
H           18.53705240843404       19.84428509318228       16.24990168784212
H           18.78346561734022       18.23866021580885       16.99698206382499
H           21.95318413400008       22.26346346232852       23.89118208286445
H           20.34502832614689       22.84550663881331       24.39059462865672
H           21.05397845946245       21.04576373890907       25.93443439399865
H           21.34613655441409       19.95799103188559       24.56887398169881
H           18.65540722446462       21.18644432173498       25.34448524445682
H           19.10468967866739       19.48542604965502       25.54857770331072
H           12.86746350484254       17.10437524308301       18.61151922020454
H           14.74636696130210       18.40595944625304       17.87512006230091
H           16.86605010699419       17.55733916556825       21.52273693506921
