151
 energy: -221.324521328935 gnorm: 0.003804770061 xtb: 6.7.1 (edcfbbe)
C           10.10134969367463       15.76416108873099       23.92409370694752
N           11.43790598365965       13.27320808345470       23.94975156069700
O           10.13599441034167       14.64678558306619       21.73232022619614
C           10.93072201037051       15.28001510636554       22.73521278823816
N           13.53382303716866       15.50587838372636       20.65847130004026
O           16.65741801377705       19.14562073475433       23.91200862231075
C            9.27596520156335       15.51110404014643       21.01982859210724
N           18.86039133450220       21.69505907582030       22.78008575398190
O           26.10134834398555       16.73349817459704       14.57163645366240
C           11.93345448277951       14.23519380017477       23.18371238249422
N           20.12179713066591       22.22524807229163       23.07696372659246
O           23.97599281407247       21.44744663168865       18.03065617848146
C           12.23127845374804       12.31258117685808       24.38549774930302
N           21.59569630501494       22.44939784644048       19.76628746949133
O           20.09043222538925       23.74707801972628       18.68952370699458
C           13.58519416508573       12.25887394908102       24.09169833954129
N           22.28141705566889       22.36217947431807       16.87155048029426
O           19.80480010669045       20.50796214890509       18.43116354930010
C           14.11107095673667       13.25832001309225       23.29532672172869
N           24.21233917851094       17.98843511900797       14.67224992036791
O           22.16375981056974       22.84384654984232       22.36799878733618
C           13.28474248634094       14.27479233038379       22.81230713150085
N           27.05890311490926       18.91190520770971        9.78910834759324
O           16.18329210753933       21.17961941696717       23.10381553278565
C           13.89198607399380       15.31344886808804       21.97506108971056
N           17.41522198659314       19.19246281968476       19.23519804348403
C           12.69839621049136       14.64055038606844       19.86515824384407
C           13.51727084515816       13.53554244891080       19.19876254225122
C           14.92686873665381       16.15891096786710       22.31607544022534
C           15.59881515859114       16.30218988659544       23.64393602726937
C           15.03834518794455       17.42704860098949       24.54418368202795
C           15.74383027444023       17.36542993899520       25.90172171628909
C           13.53265714074069       17.24259564156548       24.73689079800163
C           15.25909511491300       18.80781992147210       23.91500590102570
C           16.97726632191940       20.35977820915220       23.51217956557891
C           18.45390662135949       20.65567103420701       23.71955567810205
C           21.06551846474962       22.35451777241087       22.12940733035124
C           20.68853454170344       21.86912347421902       20.72879031899237
C           21.21990959668237       23.28639698169050       18.79584833532711
C           22.32839916444021       23.52970590573845       17.75933694905002
C           22.19373033108216       24.86747174220134       17.02264583707937
C           23.27594058701661       25.00498586349667       15.95348844004263
C           22.31634948589306       26.00300945984328       18.03737130720444
C           23.12642386931595       21.36133314153716       17.13953504706346
C           23.08032083989896       20.06737784167554       16.30057336526684
C           24.06185146426860       19.04185130711014       16.87254560360775
C           23.99582770740583       17.73691170176350       16.07856393082857
C           25.28431181515668       17.48349004081444       14.03414946869932
C           25.40239863031943       17.87217936790746       12.65310677972195
C           25.60232825483895       18.15337703643843       11.49990557360482
C           25.66793088705140       18.56661689413635       10.10104577140878
C           27.62641925090822       19.91519638982891       10.66615235289459
C           27.31856270042090       19.23639485436506        8.40292753992219
C           25.21798732056018       17.35511366351571        9.26723676423903
C           24.66088323507287       19.72476817913184        9.91957389031498
C           23.28617604103084       18.93026103101368       14.09057023713365
C           23.37685340123688       20.27793988047750       14.81438988497330
C           21.15172069331778       22.32759987712392       15.96647978168554
C           20.75352978439691       20.33553399949142       20.64053040021972
C           19.75976403932651       19.75427876170398       19.63011821466682
C           18.33768472233004       19.71951900322949       20.21435111889746
C           17.45346332363436       20.01270624331518       18.04604502028486
C           18.87907821373679       19.99595875301297       17.49302553000612
C           20.34043800350792       22.70065229513923       24.43456822840617
C           20.04437565330446       21.57415499135499       25.42033665590936
C           18.61894135595425       21.07742280874966       25.19472478045635
C           15.25076303242765       16.89197113804478       21.13686257762713
C           14.37132394895149       16.45141167969974       20.12587497245582
C           14.46768722354108       16.98028921559785       18.84621645932158
C           15.45127516733800       17.90764253212445       18.58737103006299
C           16.37170176396684       18.34382492838206       19.56851506819176
C           16.24090422817547       17.82967083188192       20.85318894260661
F           21.79192216212452       19.51502550081637       16.42371122107205
H            9.53715466720070       14.92600524542326       24.32212751621575
H           10.76374891151412       16.14710702424701       24.69403770903851
H            9.42058855783750       16.55484681814674       23.62214883737187
H           11.46157816004914       16.13152338196209       22.27722143397924
H            8.44836466449018       15.86032951799766       21.64164588714926
H            9.82782336332431       16.37262209807507       20.62899946357548
H            8.88359775985808       14.92057725078860       20.19522754913066
H           11.75510199767251       11.55996878364028       24.99928493743386
H           14.20363796746450       11.46033686161990       24.46805276258815
H           15.15696783594842       13.25506805875426       23.02385325901604
H           11.92952517336986       14.19820411335341       20.50055648163007
H           12.20767496886413       15.25146599272399       19.10255765965182
H           12.87057561657311       12.91489100820718       18.58611669947279
H           14.29399150964099       13.96702858407550       18.57217398227561
H           13.98746876928637       12.91103043977351       19.95450856411126
H           15.50602166339472       15.36677276760967       24.19783412918477
H           16.66037342208239       16.49697764808847       23.47819403648341
H           15.51378919649166       16.42703099775389       26.39856292765150
H           16.82065858495936       17.43659557959138       25.77177503756849
H           15.41616329064292       18.18314045178756       26.53880371639984
H           13.32501819717615       16.23689733547219       25.09369132104763
H           13.14916785190268       17.95534142918401       25.46284112194264
H           13.00869498247545       17.38953026542585       23.79663301016754
H           14.72862704839883       19.57826659131223       24.48432635967516
H           14.89107580956801       18.83427882288445       22.88531505484222
H           19.04486700680206       19.75521342654762       23.52874428375841
H           18.15267763328693       22.43305560122173       22.79055288845226
H           19.68992416659959       22.23404586173099       20.47684708723202
H           22.55381294477530       22.12751502132015       19.79370832390971
H           23.29996382659346       23.50106781104329       18.26239690512826
H           21.20261794546802       24.92629222313807       16.56677627815163
H           24.26086060345914       24.93044771138083       16.40892002824284
H           23.19424357094318       24.23105964651511       15.19596193296138
H           23.19331046997349       25.97305037509710       15.46754186399911
H           21.56116489305568       25.90445736798846       18.81380517670732
H           23.29833626775551       25.99370828560595       18.50672679683723
H           22.17671334777157       26.96052447797327       17.54326940857865
H           25.06470893106303       19.46671164472900       16.83075267353250
H           23.82100058888914       18.85283210065166       17.91858283291118
H           23.01033378338762       17.27778277066638       16.20936470610168
H           24.76564968730489       17.04298746164657       16.42030278410014
H           28.70786510706670       19.91639623287779       10.53143924397896
H           27.25488492749691       20.93121473116078       10.46230808608877
H           27.40960668319701       19.65937392615002       11.70177265681657
H           26.97952807148245       18.43117986892611        7.75852965200149
H           26.85272088279482       20.18008698627404        8.08052114578838
H           28.39643075958666       19.33652953297552        8.28128818921857
H           24.33037178125574       16.91617173672719        9.71554858432753
H           24.97818922816880       17.65376871878122        8.25131371492447
H           26.00659007596829       16.60849796864834        9.25236966360474
H           24.69488051288916       20.09154123344360        8.89733172033690
H           23.65623124691577       19.36805684419318       10.12772623240894
H           24.88844880692439       20.54220220192716       10.59969487420197
H           23.51302254107072       19.05224077314842       13.03225863407083
H           22.27184314661177       18.53223296064770       14.19907249761057
H           22.67293814154381       20.97317598618747       14.36472818940822
H           24.38335263332122       20.68659419547053       14.72399545065497
H           20.92485390158011       21.31608110158495       15.65652302546390
H           20.28327772335167       22.72150855216384       16.49401594655814
H           21.34533325685312       22.94969494719366       15.09253091089240
H           21.76946334790241       20.06220073815626       20.34995537232123
H           20.54856306353354       19.89577340888659       21.61422701854468
H           20.05098421616417       18.71511248093898       19.39530692734352
H           18.04246415516530       20.73413928957071       20.51716706849961
H           18.36774092564504       19.09012493972029       21.09692492856306
H           16.77603601527357       19.64768910275088       17.28125833856722
H           17.18545327524404       21.05192895332036       18.29398810358675
H           18.95345657897466       20.63258663177549       16.61373909522638
H           19.16062793951824       18.96658064306559       17.22955734214283
H           21.37640174172065       23.03369215272524       24.49504917117554
H           19.67623720827964       23.55196696639908       24.62182934297782
H           20.15863277837035       21.94242945911997       26.43858058059831
H           20.75185568947473       20.75909913983343       25.26289764461168
H           17.90934733127246       21.87853670642007       25.41627565370449
H           18.39505388773450       20.22787731090191       25.83860524878625
H           13.80099953835420       16.67461803491972       18.05398240992131
H           15.51232206672365       18.28934490430821       17.58180206241057
H           16.90256617461851       18.11795694393834       21.65119635894416
