151
 energy: -221.329326896000 gnorm: 0.009099487981 xtb: 6.7.1 (edcfbbe)
C            9.85413901272879       16.79666176599644       24.17696184287851
N           10.72846882196365       14.14347348662004       24.45564107653463
O            9.88663990065374       15.61367246246078       22.02092576575193
C           10.68814070678949       16.12024440422399       23.08628563925872
N           13.36946843015436       15.57115132379903       21.12654231766014
O           16.53962784875814       19.24937147352016       24.27000696225772
C            9.33824474050742       16.60317823629910       21.17678580556672
N           18.74257020552339       21.61136647674233       22.79798209670694
O           27.30579336043914       17.65930565646267       14.04815533205985
C           11.43720843181682       14.93320832358488       23.66147407939871
N           19.96174112735295       22.25780245067529       23.01959864789106
O           23.60109408263521       21.12826059115540       17.55353330287666
C           11.30232051211572       13.08875991419257       25.00594971654210
N           21.19335402607870       21.97137978318499       19.64626190005653
O           19.35713934935835       21.94807172299129       18.33465651668941
C           12.63562189471459       12.76415131610180       24.80808191415136
N           21.68790933805098       21.51884299285538       16.44266193822229
O           20.58742224975399       19.05374543486307       18.88514692388669
C           13.38137356399340       13.57880161267887       23.97753028352686
N           25.16843833576450       18.40904809937406       14.01958764476517
O           21.95528451632180       22.87814000855265       22.16208655766404
C           12.78766905011086       14.68699584128497       23.37325042443175
N           26.29267081770423       20.44500923548823        9.19407670683115
O           16.13469447897294       21.02495542894746       22.98010202195938
C           13.61550369967221       15.50607221592713       22.47966429997020
N           17.99667887592103       18.09258534297509       19.50193609226283
C           12.44822085033438       14.73978096793703       20.39124072459459
C           13.10546957778668       13.42939579099208       19.95998085023559
C           14.76506773603789       16.20058414000810       22.79007313761144
C           15.38913347117503       16.38137247287718       24.13839481561466
C           14.87621979316688       17.58970357930892       24.95444167819621
C           15.57688619346955       17.60426593022472       26.31487764333817
C           13.36534196016987       17.49382233161100       25.16552941778490
C           15.14855688167480       18.90288298787247       24.21292048592033
C           16.89310707645308       20.34464752160942       23.63762261168558
C           18.34373219763930       20.72311132863923       23.87991196911426
C           20.89304100429457       22.27757301413682       22.05241471933693
C           20.52280724724318       21.46307779826668       20.81539725282683
C           20.55685332750385       22.15654662983788       18.48627035051777
C           21.44481955526946       22.65148558363041       17.34193553515349
C           20.82066543236277       23.86783645342086       16.63982012854105
C           21.75414537201310       24.40438894188921       15.55813218210314
C           20.53998646876063       24.95436318579363       17.67941746358299
C           22.80620170856018       20.81805446452118       16.66363810375991
C           23.20835313503164       19.67489917706449       15.70495552901760
C           24.40399084527124       18.91661878991034       16.27999216648890
C           24.86405036352321       17.83210724225489       15.30929727522113
C           26.39650255420188       18.27939261751362       13.49232962918718
C           26.62064217369868       18.88619227081049       12.20641986980138
C           27.00404701351962       19.30992964815877       11.14595175183860
C           27.45657617905967       19.85292471899928        9.86727852809494
C           25.24542818493743       19.48658954386995        8.90208838392894
C           26.59218424113475       21.24985533520938        8.02625447549765
C           28.50061784640651       20.92924188120202       10.20468762151682
C           28.14010029709945       18.71258598783236        9.08233172793864
C           24.06557634636701       19.10408697276049       13.40495840634695
C           23.55248952570109       20.22650790955062       14.31658661453039
C           20.58073833239273       21.14878819004394       15.58501282946779
C           20.87756993251908       19.99022776647686       21.08914976658484
C           20.11434787702704       18.99137925668040       20.22415594599642
C           18.59294065160763       19.18944817961364       20.23414824298231
C           18.43924406543494       18.13415649912298       18.12544499065747
C           19.97111455306245       18.04780138405966       18.10768518063647
C           20.13150623060543       22.94515818850989       24.29033891256959
C           19.85247663694988       21.96807093099322       25.43083176934379
C           18.44698965015768       21.39202350449254       25.26571740653493
C           15.28745327230444       16.68922000538647       21.55251677040547
C           14.39397382529899       16.26795187182458       20.54171055284372
C           14.63772217150346       16.56239434931634       19.20713221813430
C           15.80041394005354       17.22613437654392       18.88811854454494
C           16.74973431619700       17.58822209107394       19.86462337476475
C           16.46851501867912       17.34268838703461       21.20377463218538
F           22.16560355363682       18.74633895240972       15.57520128725852
H            9.37574100361159       17.69608109676626       23.79740481680828
H            9.09778583911861       16.09916241480157       24.52323773844503
H           10.49737394232416       17.06521642156192       25.00888885244590
H           11.41109889611176       16.83898554136857       22.66262030450626
H           10.11498059310089       17.29316569286098       20.83036019881210
H            8.91682160924564       16.06971833628477       20.32828376764252
H            8.54982769934058       17.17062846869257       21.67717138221685
H           10.65991217069124       12.48480692378684       25.63181642324416
H           13.07116272343765       11.89894425458916       25.28034667752798
H           14.41575296453516       13.35498188428340       23.76880276410797
H           11.57554094316463       14.53533403313862       21.01322794995368
H           12.12047036847265       15.29900917123140       19.51135677775699
H           12.42445641311545       12.86902734130434       19.32414616932926
H           14.01948265200156       13.63320744650160       19.40651124581366
H           13.35178819247507       12.82211080624910       20.82917590888078
H           15.21680751841802       15.48684361755341       24.73948573286468
H           16.46586269266729       16.49917978703773       24.00220159301038
H           16.65665292657237       17.59029163472537       26.18894372845627
H           15.30156231863470       18.49984862316050       26.87165896540409
H           15.28087462026248       16.73209249210367       26.89489214197531
H           13.10384981876152       16.52472472884845       25.58310247978854
H           13.02689089091088       18.26829942895923       25.85052084757283
H           12.84384026313940       17.61585812854202       24.22142328344448
H           14.58548724057136       19.72478362603054       24.66831463571818
H           14.84922253426910       18.82937526073836       23.16225898139988
H           18.96759469012762       19.82488223867124       23.86108184362856
H           17.99133304208158       22.28584410637406       22.64147144288532
H           19.45239329703742       21.56559819876644       20.63732037548542
H           22.19268477859167       22.10639886251656       19.71816154222354
H           22.42252205593306       22.93516667090672       17.74406596292638
H           19.86477296781647       23.56976890914249       16.20136470430096
H           21.26586235826086       25.20721287665198       15.01371222885558
H           22.65874913718673       24.79922570066136       16.01153987599180
H           22.03747495924562       23.62953279725667       14.85453404391657
H           21.44397513766344       25.19294677237831       18.24054445899231
H           20.18990304697190       25.85632395665057       17.18616891230990
H           19.77513049081525       24.62647797066334       18.37923280463406
H           25.20611312952852       19.62913449263421       16.46808714688512
H           24.11696487420157       18.47077610394330       17.23259178475863
H           24.07597547381405       17.08209035256813       15.18951709117439
H           25.76893013055038       17.34733754020443       15.68323125981442
H           25.10068446368124       18.83279033586685        9.75959978507270
H           24.32101110673823       20.03313333529457        8.71814668306425
H           25.46094884227729       18.86769508440978        8.01788604238754
H           25.65781631546106       21.68440016757205        7.67518404299122
H           27.26267833429484       22.06150979935252        8.29352404897893
H           27.03190427173741       20.67433855088456        7.19704966048916
H           29.19193151581324       20.53665729617848       10.94696536957764
H           29.06754891393919       21.20488970104125        9.32030060068248
H           28.01044981083931       21.80720502667107       10.61494362718051
H           28.49602863955600       19.08551361509084        8.12483198000274
H           28.98820471406005       18.33853877445298        9.64987370051383
H           27.45299915090560       17.88813665954720        8.91332607668443
H           24.38440312113270       19.51305919794045       12.44574018863993
H           23.25336150492369       18.38673058784912       13.23892591200550
H           22.67380793707764       20.67840018526786       13.86068895626686
H           24.31921842654575       20.98984649167175       14.44181564187151
H           20.69701192265754       20.14951929159088       15.18906103704424
H           19.66847143638511       21.17523066631042       16.18175337617871
H           20.48779655760799       21.85550497698115       14.76132618866421
H           21.94525203882218       19.85435003085540       20.91053458244564
H           20.66547389437666       19.76246390244669       22.13214442476463
H           20.32242431154946       17.97631935456256       20.60857618833194
H           18.35390958280623       20.13584764659391       19.72590264003157
H           18.21998708993970       19.23508741461045       21.25414386050229
H           18.04940507216231       17.27771130971765       17.57772674562347
H           18.12527298846947       19.06844689273785       17.63154823858643
H           20.35053644455045       18.17296753609051       17.09412460166912
H           20.27545332781882       17.06317116099062       18.49294776500992
H           21.15136787469176       23.32552942352204       24.31780128074731
H           19.43094808178781       23.78554960619949       24.33473624189803
H           19.93850097844587       22.48704742603942       26.38345824819899
H           20.58643550583271       21.16144412391294       25.40454369163313
H           17.70937049422039       22.19500275849297       25.33166713335411
H           18.22895503119795       20.65567047281530       26.03897953171100
H           13.94744487096491       16.27757889292826       18.42798206412194
H           15.98366243960438       17.47218373965405       17.85441224336734
H           17.17545161717756       17.61218810052252       21.97359346979680
