151
 energy: -221.327184720360 gnorm: 0.009192037842 xtb: 6.7.1 (edcfbbe)
C           10.58146226651226       15.78794877757361       24.38138309175018
N           11.86057687220511       13.31710348395299       23.89472304793873
O           10.13438751151202       14.87565795173975       22.13721341397621
C           11.13368157701558       15.42027730428619       23.00266588570044
N           13.18367766232329       16.00436527577541       20.53324070757946
O           16.97776191526176       18.92702558753097       23.77913954519440
C            9.12717142466647       15.78318542013704       21.74525658709953
N           19.05057377866166       21.59499065221191       23.15081114774286
O           26.87795022129346       17.29619514647162       15.09831905673533
C           12.18858348981999       14.33739551501242       23.11481363461098
N           20.41352389363200       21.90678935403809       23.13993505515040
O           23.88819963454291       22.06632880170947       17.83283629123612
C           12.70221567305107       12.30970248188934       24.03976996131236
N           21.02587827671787       22.36253082728060       19.62516809155138
O           19.38468725778701       23.50915212859775       18.56800012691541
C           13.92648330307552       12.24919731688617       23.39316714344265
N           21.87553040547889       22.28929480335124       16.85641975894706
O           18.99954424255983       20.38458998741532       18.25415292960522
C           14.27951211878192       13.30895288042093       22.57957864344440
N           24.83762592607885       18.28438526332046       15.06111035029004
O           22.29705285438778       22.17805377105698       21.93602606966444
C           13.41319025181866       14.39461631311235       22.43109376723135
N           27.48060593877455       19.01411058971183       10.06121097486513
O           16.51607874809236       21.03887904979312       24.38000414797578
C           13.85699236257513       15.54891811490938       21.64344763100159
N           16.30493535901496       20.39188987626886       19.22979292809210
C           12.18776250846989       15.27738857486935       19.78581745442887
C           12.82023147496474       14.48019699659007       18.64560056953296
C           14.95394974740945       16.34802992489872       21.89651954030255
C           15.94177505210432       16.20506493536140       23.01070875029356
C           15.60873422369925       16.99738984986329       24.29556537913191
C           16.65334953335507       16.66236095993120       25.36339974201250
C           14.21671129040455       16.63210038891330       24.80610013259902
C           15.62809100255810       18.50585400284374       24.01593818586684
C           17.29691265238956       20.17612333075573       24.04168244964266
C           18.79532207471716       20.39230183749951       23.93579404514797
C           21.08766578693941       21.97428399399082       21.98410261532617
C           20.25336543312223       21.81299929616507       20.71210659645033
C           20.55453922017032       23.15877516101017       18.66036936543133
C           21.64200318721334       23.51012299951486       17.62927020282421
C           21.30765782642998       24.73304306227472       16.76701712672588
C           22.37817316789251       24.93472119862721       15.69592425919777
C           21.23163532188001       25.96273474243386       17.67037285711565
C           23.00947643237021       21.61918732114849       17.09357417804686
C           23.24372187001418       20.24235747842198       16.44069708476605
C           24.44098805314923       19.55987124489213       17.10538213137417
C           24.66930662285003       18.18053303835236       16.49312297121120
C           25.95987609101091       17.83291561266110       14.47451199131619
C           26.03614004257696       17.97676909762536       13.04255900904890
C           26.29597968286062       18.02412866280634       11.86766580716905
C           26.48075370056972       18.00136281919482       10.41756946020138
C           27.21062691875220       20.33249435744160       10.59616880148064
C           27.79936668337479       19.09380060801730        8.65082825058612
C           27.01445839791593       16.59527108724646       10.08976944779208
C           25.09805867471946       18.20075541366566        9.75907437472741
C           23.73743795034852       18.91213269219337       14.37095777774579
C           23.47040285806318       20.31527976714817       14.93027595646535
C           20.78169809543308       21.88752350227949       15.99570002817126
C           19.93974579861679       20.32354506571376       20.47397953277339
C           18.71366333909350       20.04050943639741       19.60398328970901
C           17.43354141028272       20.76398740143111       20.05950505784126
C           16.61659242703800       20.73744535150250       17.85247893694886
C           17.91488596841260       20.04979621210047       17.40935175562381
C           21.06415065240147       22.06788850159530       24.43203208448139
C           20.86399980864062       20.80609751059056       25.26888517388319
C           19.37301868812342       20.49072510995806       25.36110570168582
C           14.96870053170674       17.34978570864170       20.87892101752487
C           13.85752809936667       17.09194749554784       20.04624980281160
C           13.57709357368951       17.91947640222977       18.96579503406330
C           14.41307593068813       18.98261556984422       18.72519566418643
C           15.55941230660268       19.24428295320383       19.51057904676684
C           15.82854482825716       18.41471394089291       20.59138310333552
F           22.12000272433150       19.43400646612571       16.69814883456888
H           11.40167462266244       16.06413802245604       25.03665613344683
H            9.89467016391539       16.62550546083227       24.30483731073773
H           10.06977398034688       14.92562514389345       24.79801526606068
H           11.56293413596561       16.31660765852216       22.52450109245536
H            9.56674120244380       16.70644338125426       21.34899739093404
H            8.56428101843958       15.27771429667435       20.96289073496634
H            8.45729471633382       16.02772337052841       22.57451364856103
H           12.36765784512448       11.52417186865924       24.70297549342548
H           14.57921742715921       11.40119151645144       23.52377526344736
H           15.21641538408822       13.30703287744793       22.04323104280073
H           11.65730407398602       14.60428984127750       20.46202028660897
H           11.47056748704176       15.99595675328298       19.38039810666070
H           12.04863840795359       13.94517233575535       18.09989431226310
H           13.34120539292788       15.14580840414654       17.96075811661435
H           13.53497568677549       13.76015446997630       19.03932607837586
H           16.01945827235483       15.15399378327657       23.29118447362067
H           16.91821786708706       16.53610490029227       22.65244503043332
H           16.58661392292146       15.61210646201975       25.63734966298360
H           17.65518778309599       16.85853590500033       24.99116697204137
H           16.49099433602200       17.26097372799234       26.25620938862336
H           14.01227497913598       17.12954238512014       25.75008544453576
H           13.46172359260825       16.93026092349350       24.08384435176657
H           14.14389799925818       15.55801536513862       24.95755635244529
H           15.23778279371030       19.07088937423158       24.86881764425353
H           15.02412766949904       18.74638011361693       23.13623632678341
H           19.24196770797771       19.53694321130248       23.42053444672665
H           18.51146455156111       22.36748888555831       23.54427121994658
H           19.33328024375675       22.38884067104022       20.81016638444900
H           22.02304653675172       22.19306435910504       19.68713130161903
H           22.57455749730515       23.71392307043969       18.16754919794143
H           20.33060907038013       24.58943420600635       16.29827282366704
H           22.19066227785378       25.85905264230209       15.15564903437240
H           23.36138321097649       24.99949849358917       16.15932167871954
H           22.39245116326057       24.11403528922519       14.98499995938681
H           20.45109843093666       25.83768866911771       18.41727024725652
H           22.18004993308394       26.12019340343403       18.18035635677501
H           21.00502659966703       26.84625917644482       17.08036758981362
H           25.31590390196621       20.19473375958355       16.97174677742957
H           24.25634589545349       19.46378485846317       18.17521366155770
H           23.80752585897069       17.53822287146167       16.70652639064157
H           25.57044762055614       17.72320333666543       16.90563937962900
H           27.00599977940467       20.25794607851623       11.66252786811031
H           28.10070095529042       20.94501147170440       10.45694294285003
H           26.36628303692924       20.83912157870190       10.10322778580343
H           28.68379417072310       19.72215360264163        8.54477928601090
H           28.03699428992472       18.10896104356144        8.26085873678726
H           26.99187723968084       19.53649869851283        8.04828960812557
H           26.41654217584787       15.85027018384395       10.61670499737060
H           26.95411700990606       16.38936023833940        9.02201756631263
H           28.04761234061310       16.51254917760584       10.42150572375806
H           24.69010780491075       19.17672901840228       10.01137329372839
H           25.18452605468971       18.11807870809527        8.67853101562458
H           24.41378605397174       17.43479738421678       10.11447852477960
H           23.96787713962564       18.96677526783984       13.30683669697062
H           22.84013921277412       18.29958490325371       14.51459898413674
H           22.60082636013583       20.73509043137066       14.42897213780886
H           24.32963698208374       20.96357163354653       14.75503888334325
H           20.72000120122095       20.81019124539566       15.90513903108590
H           19.85497155452354       22.23448998391439       16.44770579735617
H           20.88563555552203       22.34298117633448       15.00993684009810
H           20.80756225124862       19.86787376439597       19.99254007038582
H           19.77877034667677       19.83501485187062       21.43131410167548
H           18.52365959997617       18.95147435789642       19.63853621946592
H           17.57274324718669       21.83997726340514       19.91630694381959
H           17.22445573858508       20.57649232390924       21.11178245717841
H           15.81179219673827       20.45135157332135       17.18174835772944
H           16.75689231925716       21.82234078960134       17.80546953489936
H           18.19998788882343       20.37432878893014       16.40780401583660
H           17.77084968047296       18.95688845415960       17.41489144812982
H           22.11868750821174       22.26427436726821       24.24144057202357
H           20.61745357610731       22.93084994461836       24.93527272234999
H           21.28004942369946       20.95958959121405       26.26299465475725
H           21.38967762175840       19.97342681389581       24.79879297548682
H           18.84954453106514       21.28623894069131       25.89715200689043
H           19.20739700018474       19.55192043814877       25.88828224307475
H           12.71780454432227       17.75428350262916       18.33464755445346
H           14.16372451702292       19.65127770568941       17.91742490790858
H           16.69018219888868       18.57142569860592       21.22053455168992
