151
 energy: -221.320464603261 gnorm: 0.008898674937 xtb: 6.7.1 (edcfbbe)
C            9.81751843839027       16.75562307432809       21.70693031036054
N           10.42782795895643       14.44914672091670       23.17680614575540
O           10.58232259343413       14.91293079339229       20.26356389721175
C           10.96156777795122       15.83081681460649       21.28724754842910
N           14.16343044238789       15.01034521190760       20.75180084532397
O           16.04212482790043       19.73528605654648       23.48074266281295
C           10.28350585701370       15.50978711928317       19.01916738364151
N           18.60137663321915       21.98652263604273       22.44799092261136
O           27.36186518325162       18.06065631790432       13.52880616994194
C           11.40895551414730       14.98986162634790       22.46807112761858
N           19.72121554327629       22.62444600837074       22.99002952424348
O           24.99267464470950       22.27092497863503       17.37738096978111
C           10.71524632421324       13.71430509481078       24.23605119206101
N           21.92571730429824       21.75744439377475       20.33455133014446
O           20.87848488095234       23.70842866231888       20.00200683048513
C           12.01357700039890       13.47794059472270       24.66125540547208
N           22.79234039187210       21.94095912419291       17.69752764846983
O           21.56634464522079       18.89328963894618       19.86220166936664
C           13.04372677001795       14.02877176790109       23.92253347913040
N           25.33664189406672       18.63902303202423       14.37415090199302
O           21.94467580998895       22.98416026035387       22.87431190374682
C           12.75976062555267       14.80094150973566       22.79532307918792
N           25.19567188579860       19.58869073627657        8.77244442562140
O           16.10360449191345       21.21312318963352       21.79861350101637
C           13.88830669492785       15.37140055636149       22.05220781576055
N           19.07456980777275       17.52037356718876       20.14590784761965
C           13.56805589167286       13.90996348193179       20.03511392325586
C           14.29728574624490       12.59980390893698       20.33044604512089
C           14.85205615953577       16.23961807021611       22.52088784555471
C           14.91239932549784       16.89097026612864       23.86600828504732
C           14.16787608300775       18.24118222895571       23.96987528225453
C           14.26068523288793       18.75807254553652       25.40737551357273
C           12.69786147251020       18.06808838169705       23.58726301733734
C           14.76727381028106       19.27141049450463       23.00686716151837
C           16.58493756248165       20.72785436599320       22.80023148024896
C           17.85963473481931       21.23634476518518       23.45039314927275
C           20.93901416741999       22.41962207185377       22.46297520587846
C           20.97526619437488       21.36678036523885       21.35151354586412
C           21.76207082550129       22.91676284446592       19.68796989410322
C           22.75549361575924       23.13601820190496       18.54126815622408
C           22.54170597710275       24.42419636125715       17.71389798373683
C           22.78925475692073       25.64849470759132       18.59409337863993
C           21.16812198191466       24.51400698251408       17.05202683463446
C           23.98657136357601       21.58053245854753       17.20979364932362
C           24.13141805563179       20.26641837773670       16.41882155049286
C           25.56433682000139       19.74280070261116       16.55301816545949
C           25.74328737573508       18.45657329796981       15.74940249112502
C           26.18873327807136       18.39849005407294       13.36116347179695
C           25.61770689488734       18.51734449065583       12.04316256629748
C           25.23886830363899       18.52407547159537       10.90011098706954
C           24.63271452374051       18.49243183926115        9.57147165899116
C           25.14215363427181       20.88534103651331        9.41633373523786
C           24.68626627971705       19.67863347383719        7.41929234669935
C           25.02827625835733       17.13681610483154        8.95757010465420
C           23.10163256716359       18.55579579699209        9.75369186211596
C           23.97945785459903       19.10166952373545       14.21268959609102
C           23.79000371678718       20.43907811451118       14.93651581860545
C           21.53750400523064       21.24720157159642       17.46246113605442
C           21.32920266671358       20.01560309590019       21.97191227695895
C           20.92366897879240       18.80960869753323       21.12166582546368
C           19.40067137129158       18.67854263784625       20.96265471404865
C           19.75988129837726       17.60064340234879       18.86789324270926
C           21.26398633716024       17.74237485356082       19.10270629348063
C           19.48549039171317       23.51534129888452       24.11194856529694
C           18.77320254272881       22.74078486768255       25.22193145884934
C           17.49752760122135       22.10167972273194       24.67297285205592
C           15.79985138959267       16.39926717000055       21.46462310503907
C           15.33858728552948       15.61127017374571       20.38700453692346
C           16.06532878711286       15.55186929476583       19.20790138723673
C           17.25790200172766       16.23546807154437       19.13336617742054
C           17.78213577753216       16.98065631778663       20.21256470126870
C           17.01560311805811       17.07648394367582       21.36947383757395
F           23.28348183628379       19.29225848253334       16.95569895871485
H            9.53174294133949       17.40872383402313       20.88976114334727
H            8.96812050632438       16.15234665013877       22.00925064144963
H           10.13361304464478       17.36205798764015       22.54698623778989
H           11.81214102375228       16.43131340587311       20.91850525124717
H           11.07233491505305       16.21256565546800       18.72498493076694
H           10.23066735232249       14.69214380348537       18.30408009686133
H            9.32201258175268       16.03181230966927       19.04259371778293
H            9.86186320132739       13.30824615022114       24.76154162405418
H           12.20799077099434       12.87906586054244       25.53604315624075
H           14.07443148909434       13.85784052346418       24.19836673097304
H           12.51680549495343       13.82439733979546       20.31637842342347
H           13.62115512063136       14.13438380948533       18.96643745236160
H           14.22797680277185       12.36167228022367       21.38959015290637
H           13.84925791455636       11.79033551369452       19.76109507767278
H           15.34805263902493       12.68247646193180       20.06147400644956
H           14.47864476377032       16.22282906003024       24.61147543672644
H           15.95928478885558       17.05855855619390       24.12648459767586
H           13.79244955125997       18.05094525944988       26.08772569409110
H           15.29969082380930       18.89388571943235       25.69946069561420
H           13.74578264491412       19.71280256744885       25.49243359062712
H           12.14426498765171       18.98407721592018       23.77811132051521
H           12.61055614288969       17.82583509049767       22.53242200028294
H           12.25099764354024       17.26390982589936       24.16483351291647
H           14.10985762460948       20.14186997631995       22.91328832554123
H           14.90204671603411       18.84098300738603       22.01030608954430
H           18.47159802719304       20.38760060031890       23.77066227206975
H           17.98069748937880       22.66939163165509       22.00956844058485
H           19.97759295067784       21.34424487100963       20.90291936811516
H           22.65112716568549       21.10201384067064       20.08678631252802
H           23.75315909465647       23.22490565440501       18.99351876445947
H           23.30767753730050       24.40384927661609       16.93008703449251
H           23.79161268302571       25.62343322143809       19.01622850885913
H           22.68428808409356       26.55645308807474       18.00610725384139
H           22.06938612532361       25.67431438042339       19.40702068300024
H           21.01735248579147       23.70796740270321       16.33924505792124
H           20.38683827291203       24.48557908522634       17.80792933775707
H           21.09047087268589       25.45688286034933       16.51551283916912
H           26.24348720293044       20.52023850960331       16.20488033259208
H           25.78164900983187       19.54938851338964       17.60381434068333
H           25.13002995804910       17.66315265000829       16.19124168676938
H           26.78914561223485       18.14647660035320       15.75477239340551
H           25.52859831269293       20.80625105434578       10.43155523222515
H           25.77746671761178       21.57023923248909        8.85311049827539
H           24.12644237604640       21.31178805583343        9.44989140647628
H           25.33825283679974       20.34967288254943        6.86061749275157
H           24.71176508710512       18.70546967765051        6.93996719174867
H           23.66366897985253       20.08107046739497        7.37084875404617
H           24.41152134361879       16.90253328791257        8.09500890548120
H           26.07200485581675       17.16211275914085        8.66075772843142
H           24.89368694465240       16.35139815758532        9.69749301457021
H           22.80628808248308       19.50545631415092       10.19283533861672
H           22.60813718993847       18.43888778854342        8.79269891687185
H           22.77867198310263       17.75352189006701       10.41137626358732
H           23.75960452857930       19.21119529387104       13.15141587128963
H           23.30087093961237       18.36043110305104       14.64750210135361
H           22.76186200836343       20.77208490742292       14.80894393554451
H           24.45822110288574       21.19431583209690       14.52332562726903
H           20.72492811040438       21.90046491771567       17.77260592375464
H           21.41774471375174       21.01618765906966       16.40313495882934
H           21.48384734060414       20.32087542193804       18.04220613261132
H           22.40644130549401       19.98831610654488       22.14159949348841
H           20.83554089631219       19.93030037464555       22.93894868732992
H           21.28057609848198       17.89593640538299       21.62770005049560
H           18.98485556154830       19.59374472379845       20.51399600683200
H           18.98263082429847       18.56143879709688       21.95884148155538
H           19.60915007503948       16.68753953893559       18.29712622292183
H           19.40112298522737       18.46288069969365       18.28250367606791
H           21.79079405502312       17.85050711109090       18.15618843113247
H           21.63441416127158       16.85168259367816       19.62890938939541
H           20.45661016803922       23.88898214410640       24.43804351317124
H           18.87183803575628       24.35812739303494       23.77479827632782
H           18.53370597284341       23.41741662963311       26.04007256171041
H           19.43957290695832       21.96354281287528       25.59929340959867
H           16.79702474594150       22.87976386561584       24.36135896649507
H           17.01738905944229       21.48296698571735       25.42936309274673
H           15.71477946797492       14.98923022087501       18.35239783472896
H           17.79075224425306       16.17864014449476       18.19998978689388
H           17.34399112970898       17.64474982401148       22.22413697911322
