151
 energy: -221.319691740757 gnorm: 0.008444245604 xtb: 6.7.1 (edcfbbe)
C            9.20010847097706       15.55079164962929       23.62554850913158
N           10.40871151668995       13.02305610964149       23.85201146401054
O            9.31075081946146       14.46008681128718       21.43205290954216
C           10.08132766139720       15.00123623624667       22.50410892968477
N           12.60137218960618       14.78882089037333       20.36653833385378
O           15.69132980286180       18.59222761186021       23.29679100860080
C            8.76094647079954       15.42821688811041       20.56578040687582
N           17.98602889903792       21.03914551288974       22.19185748607549
O           27.70665535818981       17.53667736343216       13.88795144319809
C           10.97017059026310       13.88102980029992       23.01273712045549
N           19.34559919246723       21.30920058323655       22.37234487068536
O           24.54973993929098       20.52156159837953       17.59526546407697
C           11.12760672743688       12.02850256125758       24.34017756008517
N           20.75949906730908       20.97404877133850       19.03832527142952
O           20.51754903491266       23.20227220669960       18.83036784068774
C           12.46254931303208       11.82787882419372       24.02246094414572
N           22.50477791868196       21.08542659867332       16.84639842807406
O           18.21576279893529       20.27640774964517       17.61081273865819
C           13.05758101466382       12.71657419253906       23.14671039635633
N           26.49467303516103       19.28791005263086       14.67970873839753
O           21.43552044061372       21.26299432958940       21.55334927379550
C           12.31038317298748       13.76745483473069       22.61421039700746
N           26.11788691598904       20.94400697119115        9.51207528778940
O           15.26236272521805       20.73198250011465       22.77815617674986
C           12.96555187697072       14.70230856536532       21.69293701866986
N           16.28640334249640       18.56712981435839       18.71271068347062
C           11.79026985911699       13.82794896088920       19.65993225965179
C           12.63842487335219       12.66623275990923       19.14531699641637
C           14.00294820142333       15.56527047222762       21.96443016295056
C           14.68292984404172       15.78463311799914       23.27741780463040
C           14.12314653043262       16.94648057310943       24.13095142852561
C           14.88472914063968       16.98750431595215       25.45941182469619
C           12.63350835258907       16.74896415282844       24.40580873908061
C           14.29448547179447       18.28516570525493       23.40313540533444
C           16.03662987300929       19.83010452869633       23.01338185719999
C           17.54105001801772       20.00118849003382       23.11622739644310
C           20.22708867982793       21.13669706425418       21.37889228569882
C           19.66564347761037       20.85604609698933       19.97738365506176
C           21.15309637365217       22.18341747110356       18.60757642288343
C           22.46073016663469       22.17881400906271       17.81138340476441
C           22.77454844233079       23.56364198940348       17.20119145595619
C           21.77649006856482       24.02676165905437       16.14162081717971
C           24.18964842179826       23.59485525518311       16.62943547768654
C           23.62061728453363       20.34247756347791       16.81119611242855
C           23.79892990511933       19.28297875034659       15.70818015082804
C           24.83120245907170       18.21356865711315       16.09511425285159
C           26.28091690835708       18.69610798795053       15.98062428472963
C           27.08211607623861       18.58158407211631       13.69367423981684
C           26.91801796495469       19.10272463717691       12.36141537360802
C           26.75616370914379       19.35551227877146       11.19523641402750
C           26.52900770630081       19.55850575030162        9.76644691093980
C           25.04081925544683       21.42077353034941       10.35552606905330
C           25.83365035536167       21.24381617406614        8.12373472863353
C           27.86652931640825       19.27102272084405        9.06064345952069
C           25.48391511489361       18.49619013614840        9.35541969091117
C           25.64101250562543       20.42455061305829       14.43995326241774
C           24.18331192102331       19.96334479312121       14.38607813411310
C           21.31802387203166       20.86324058625545       16.04073810084541
C           18.96039902211225       19.50559816117286       19.84393884694369
C           18.62929281490027       19.15812420248023       18.37781661052565
C           17.58045159077476       18.03509272932514       18.33164054428872
C           15.88847342721894       19.60870721017670       17.78714464229100
C           16.91094397940266       20.73311237973414       17.92524331582633
C           19.76790192834799       21.69323164814234       23.71198138241465
C           19.36480572023861       20.61320916424151       24.71291285162639
C           17.86790863446467       20.33932370963338       24.58519992118714
C           14.31712256636845       16.21253949892875       20.73124351324763
C           13.41916690161691       15.70275616250848       19.76041645516882
C           13.44270430364938       16.15877525929460       18.44842185965648
C           14.37867772991136       17.11024876748727       18.10707853520821
C           15.30631950457833       17.59297061002607       19.04293162992912
C           15.27914226104794       17.14519077926323       20.35038800242959
F           22.59684114820908       18.58269729264518       15.49812200307713
H            9.82419816936716       15.91419182126840       24.43638972693095
H            8.58637175488531       16.36988210779693       23.26118665627083
H            8.56168940787164       14.75497190428869       23.99373282860451
H           10.71880701232741       15.80332034423989       22.09768613654665
H            8.27559007353818       14.87058159823881       19.76731171523168
H            8.02069940732018       16.05682876630303       21.07204463449570
H            9.54899096257321       16.06871761048405       20.14779128837177
H           10.60170405351878       11.36170350888608       25.01035806247032
H           13.01469011898952       11.00400757281483       24.44540211184952
H           14.09246701276020       12.60460508434361       22.85724983925618
H           11.01402393497460       13.45585223281509       20.33193043078904
H           11.30487504198006       14.33741098495974       18.82385263909603
H           12.01849151645041       11.97538372633331       18.58142523470259
H           13.43318716993975       13.03470530480668       18.50039009748253
H           13.08733796345358       12.13036131121291       19.97885234121696
H           14.60629464314389       14.87444732930323       23.87496594520103
H           15.73908584810177       15.98590043604873       23.09026155466603
H           14.54695147079626       17.82480245229497       26.06501234466928
H           14.71520953610247       16.06987535451387       26.01568446515726
H           15.95201270257814       17.09556661055560       25.28409274305906
H           12.27503061349759       17.49083946813197       25.11472872088222
H           12.06330667990702       16.84721853738928       23.48802615056440
H           12.45581176873527       15.75952019313526       24.82019933278718
H           13.80401274166820       19.09565803816763       23.95210032274454
H           13.86783654665729       18.24544817177608       22.39679815420472
H           18.03207084171412       19.06310549238847       22.84007546865324
H           17.42571754719284       21.88128776702276       22.33879331339710
H           18.97298170537034       21.67107467987702       19.74295584604392
H           21.41341210854269       20.20943513643272       19.00524442330817
H           23.25269241183452       21.96982305029364       18.54532078070421
H           22.71553377444119       24.25855698998647       18.04539738752769
H           22.00539154399687       25.05209723103665       15.86343316932671
H           21.83697732201377       23.41184031989400       15.24814349517582
H           20.76383019108672       24.00258005001743       16.53505129555463
H           24.25354361760904       22.96698146608777       15.74306528600209
H           24.45032815383118       24.61058261405487       16.34743427472597
H           24.91391543192283       23.23749417473477       17.35643082947880
H           24.64130310380956       17.87610960774118       17.11472137407054
H           24.68135350088065       17.36962863864463       15.41525658511949
H           26.96128466591767       17.85061310689786       16.09160942322104
H           26.48699502655322       19.44036974440884       16.75272062850827
H           24.96614650481985       22.50074187875764       10.22961216443464
H           24.06389840805526       20.97713102267782       10.10921512880855
H           25.27099313861368       21.20781434987356       11.39667150895363
H           24.88997579268564       20.80069832870254        7.77219146151246
H           25.75427972403666       22.32555104324951        8.02354654223122
H           26.64565357081384       20.90392584369455        7.48910787367780
H           28.53796342939495       20.11449724936091        9.19193488117969
H           28.32406562212605       18.38707872093847        9.49765427957740
H           27.71734401163999       19.08873216317297        8.00027223954037
H           25.84400051131294       17.50758143080183        9.62698079507602
H           24.54080633759524       18.67035814849829        9.86436127556445
H           25.32189449788485       18.52671405797395        8.28073692272427
H           25.78145896271285       21.12620508718204       15.26717906710400
H           25.92699845524612       20.90926553987066       13.50648051323139
H           24.06349327973770       19.23015004754796       13.58589634813726
H           23.52993373732961       20.81021433091676       14.18125790201774
H           20.87742656124706       19.88835208728087       16.24625059557107
H           20.57839153627889       21.61535630546679       16.29497191379532
H           21.53883973403950       20.92340785858197       14.97600039637463
H           19.59631829890696       18.71508916690759       20.24256068349555
H           18.03351407635069       19.54271158215581       20.41170320619643
H           19.53657885105546       18.81631346419502       17.86779614307045
H           17.85903637565192       17.24038296272280       19.02381716873339
H           17.55245878797621       17.61747604190717       17.30882271742251
H           15.87388951838103       19.26541778440505       16.73878732076574
H           14.89900822775156       19.97137627707056       18.06414457198856
H           16.87291275555992       21.12516338578098       18.94815185666991
H           16.71049117650546       21.53963466044446       17.21856696267702
H           20.84804008291041       21.83354500176144       23.68186802912708
H           19.28643268818926       22.64416824611091       23.96433814363183
H           19.60298616252758       20.94780688004232       25.72186103893566
H           19.92716063038888       19.70067752478705       24.50673804587856
H           17.29942238723422       21.22470770852786       24.87998806450927
H           17.57234319551564       19.50926292108657       25.22540307162073
H           12.75098069199648       15.78393089166308       17.71058798232323
H           14.40700156020057       17.48031815885427       17.09381068926008
H           16.00138564189148       17.52635183163139       21.05439504191369
