151
 energy: -221.321156397150 gnorm: 0.009911530476 xtb: 6.7.1 (edcfbbe)
C           10.49962482038289       13.70448535873054       22.73392003063240
N           12.57649729338783       11.95211611297410       23.28237060161961
O           11.49501008819068       13.06386099581493       20.58423587404215
C           11.73570070865912       13.70574150525598       21.83726202082384
N           14.50563081499549       14.36043049782464       20.00759634390743
O           16.10198924233330       18.85316984677524       23.26116673317623
C           10.80401583921409       13.85950812494536       19.64757053032848
N           18.40974104591912       21.31562369754795       22.01629034983919
O           20.77394306039431       17.69249432759124       12.24646898347878
C           12.88776136624747       12.96613451690129       22.49112356018228
N           19.80236568729442       21.46059419599671       21.99003749789276
O           22.38302969027916       21.77307428161446       16.02704782479924
C           13.54272799561732       11.28575298120104       23.89194085566713
N           20.51249670709500       22.44000458992127       18.56099206890763
O           19.78903495288863       24.57745943321566       18.70067533820090
C           14.88431275121972       11.60618817302835       23.76250231240300
N           21.12398998696969       23.62046623073848       15.88655260585267
O           17.23746888530809       21.95266081002186       18.01777006392816
C           15.22060519166721       12.65857309667851       22.92926294294685
N           21.77778819075786       19.41909652632789       13.32594984027140
O           21.69449479608094       21.76478261252716       20.82171701715821
C           14.21613536249453       13.35298763192095       22.25992410487680
N           26.32032719764378       16.89014862696226       13.15891534028456
O           15.75640027285419       20.92449595259441       22.47786110160989
C           14.57646645361645       14.46927838338764       21.37643615046898
N           16.44910730824965       19.34953873125957       18.67301667671889
C           14.30714099877829       13.13551275597574       19.27439734515081
C           15.62970158907617       12.39961629750353       19.06365122667396
C           15.04595729423190       15.70954834322972       21.74419262704457
C           15.36670145111972       16.12516170206619       23.14633072077214
C           14.44896018520962       17.16742840173551       23.82791044933565
C           14.76361231323612       17.16749591845860       25.32718381286778
C           12.97812575982864       16.81826921489526       23.60858571759956
C           14.69405676301070       18.57598060409256       23.27336269089486
C           16.50152580599134       20.01988300385289       22.79012409740469
C           18.01811010771082       20.07295247729649       22.67722094491225
C           20.46899870384216       21.68347854372166       20.84728945987926
C           19.64325057443776       21.88981382966107       19.57614304529956
C           20.55522100742605       23.73721294209217       18.24929838510532
C           21.62020342779672       24.05023211305279       17.19147123130868
C           22.06114017766932       25.52003146847044       17.19439809427626
C           23.04478426046304       25.78427175947508       16.05667101816395
C           22.72072340310276       25.82995419874953       18.53914717617355
C           21.68044554747673       22.52570853120887       15.35195965057278
C           21.50570239234921       22.25220170225350       13.84894382981861
C           20.30259302616271       21.37383673330106       13.48816714214758
C           20.54596610075454       19.92175594648081       13.88774563905693
C           21.79458693129526       18.27438345455208       12.62034154715172
C           23.09998324225192       17.70696452666112       12.40407517401446
C           24.10541237835795       17.04549612991016       12.34842000971315
C           25.30176058214543       16.20758317790420       12.34883246886213
C           26.73193072704376       18.17088521031567       12.62126065426528
C           27.47249159462168       16.08934511474407       13.51637189824631
C           24.86210564792043       14.89553175892765       13.02076605220331
C           25.71661241519606       15.92485985319805       10.89072983767207
C           22.95340573461577       20.17380932354639       13.68580813610638
C           22.78019943745671       21.63383694968774       13.26391848715141
C           20.01109008434840       24.37082810472512       15.34550307952269
C           19.01075071123821       20.59488287881066       19.06827277959640
C           18.11359644740457       20.84994967578995       17.84384757699019
C           17.30088241116571       19.58490071711029       17.53029353365415
C           15.50088588396247       20.43517249393604       18.83220278634111
C           16.27040780958329       21.73975502656748       19.03581740171185
C           20.50565996326720       21.35117377948941       23.26263729127235
C           20.17438761887226       20.01711630556194       23.92267646904470
C           18.65902608137164       19.89642501801758       24.06540169957974
C           15.29005335205884       16.41382049887613       20.52591440343527
C           14.96151842913402       15.52959163667881       19.46573648474602
C           15.14671880963374       15.89275416435673       18.13667492042390
C           15.63298320870212       17.15233448315039       17.85998283199874
C           15.94390860200508       18.04792035647162       18.89307068723746
C           15.79124976196390       17.67303129800965       20.21463232482282
F           21.34082536214523       23.48752593183433       13.19843957673453
H           10.74204076872753       14.16264027446046       23.68800012550698
H            9.69101357091477       14.26338071321452       22.27209785766751
H           10.18329345771675       12.68038583124149       22.90221053743155
H           12.05571231317876       14.74112989102491       21.63829138214844
H            9.79512112529194       14.10341017688412       19.98859142925087
H           11.35076073625880       14.78857893355446       19.44655921248160
H           10.74277921001527       13.26564960113583       18.73891800578341
H           13.21666727823732       10.46436101799190       24.51516368476089
H           15.63756970797663       11.04880673379789       24.29385702402622
H           16.25204549742663       12.94700323736133       22.78589325881517
H           13.60553415995069       12.50594336110825       19.82535028807790
H           13.85781196647433       13.38491959646949       18.31112351340219
H           15.47023943448330       11.51716818908448       18.44960844458016
H           16.34615646719458       13.05059214144985       18.56669835590180
H           16.04546397533680       12.09023026341247       20.02059597158194
H           15.33945685237966       15.22562137262716       23.76461237936868
H           16.38589451041597       16.51748977321220       23.16669828956029
H           14.58106696124231       16.18475437743561       25.75152674486886
H           15.80494610605098       17.43198197116365       25.49149249338331
H           14.13632767551941       17.88710331968654       25.84859661958236
H           12.74678520396581       16.80372348274316       22.54925740403678
H           12.76365790705980       15.83895379115033       24.01923070516471
H           12.33458142874072       17.54681350367510       24.09062753468028
H           14.18865471474182       19.33309829511275       23.88459274627530
H           14.31398779086788       18.66431700349642       22.25015846564306
H           18.33932454449332       19.24204712801415       22.03411933197790
H           17.97919170056851       22.10596429370995       22.50123930657276
H           18.87064993845663       22.64086793188721       19.77023937152224
H           21.24479696481763       21.83305613082037       18.21397152860833
H           22.49728635841674       23.42918011348694       17.40593857138468
H           21.17860872953741       26.15578787441213       17.08618376206403
H           23.91257699917593       25.13496688272294       16.15589952468203
H           22.59392211892208       25.60456425353718       15.08340885528232
H           23.38242499711340       26.81659747613089       16.09060914383290
H           22.00780657544224       25.70891764217599       19.35108927004437
H           23.55805412330564       25.15872248437030       18.71501667775379
H           23.08677557515295       26.85111198069946       18.55176722193934
H           19.39170378101126       21.73230492045236       13.96992108813152
H           20.16929888656395       21.44264777658717       12.40530667637064
H           19.73239701079256       19.28934043669272       13.52450576203608
H           20.60698318652623       19.84386920327187       14.98008924829989
H           25.85243575864581       18.74160708809711       12.32217260578590
H           27.25224300399248       18.72082870420234       13.40657426916491
H           27.40737389224543       18.08251272974336       11.75767608705302
H           28.08580154782317       15.79477531983331       12.65169284961400
H           28.09515909151035       16.68315201629972       14.18448781725465
H           27.15882335806599       15.19928831927540       14.05255495101194
H           25.60513747037230       14.11619120867307       12.87829852917992
H           24.70135369033989       15.06095863679337       14.08204037110720
H           23.92606990053694       14.56376729376033       12.57739680731010
H           24.90093963427327       15.42708863826192       10.37353464140062
H           25.94487294838614       16.84910198284287       10.36537783072169
H           26.59086523044304       15.27838842139280       10.87062322643289
H           23.09970064973963       20.12976101557656       14.76804318847510
H           23.82429938154641       19.74587367812222       13.19151579370803
H           22.70254245390723       21.70223097774900       12.17748592230930
H           23.64642955045229       22.21230978219663       13.58735609275919
H           19.42928408864235       23.75917061966650       14.66427725148088
H           19.37009182212934       24.66678135977102       16.17455353182863
H           20.34581581867275       25.26143757167928       14.81363220775870
H           19.79542660177246       19.89289661175003       18.78509388865664
H           18.40229694148879       20.15231815369301       19.85287509532009
H           18.72712061786001       21.13278656053665       16.98118890575565
H           17.96840723853858       18.73311535490598       17.39606480600795
H           16.73010926328262       19.75243401714341       16.60036801274208
H           14.84958807032180       20.52295048308112       17.94411048954775
H           14.87694339673798       20.25200810633712       19.70786814419269
H           16.74393620164764       21.72914640467208       20.02422174427542
H           15.59576664317167       22.59525058895697       18.97514527834706
H           21.56931583495038       21.44420419017201       23.04684623631531
H           20.19308824106405       22.18198892530186       23.90487853633876
H           20.65446939371125       19.96403557745161       24.89843004458852
H           20.55512956336713       19.20415264342549       23.30345366442726
H           18.28598311536392       20.67131452409155       24.73948657908248
H           18.38230812011054       18.92331674952091       24.46711696584235
H           14.91688372243134       15.21135037967213       17.33198917538557
H           15.78007496539504       17.45398707084471       16.83396375300306
H           16.09266463938753       18.37075431492066       20.97424970438916
