151
 energy: -221.322478684204 gnorm: 0.003107529196 xtb: 6.7.1 (edcfbbe)
C            9.24186457006931       14.82689172001181       23.89334584464955
N           10.80863456912218       12.50244961360135       23.89290966366379
O            9.45712526262197       13.93376160307140       21.61349108078948
C           10.15967334336462       14.50619597669373       22.71416721135606
N           12.71654297771868       14.73403084992657       20.47760889139217
O           15.63654681023171       18.69473536136645       23.46810909600959
C            8.64338632959257       14.84110932072281       20.90204832589683
N           18.05428917379416       20.96698370995355       22.11618216302894
O           26.80587891789185       16.90812531720799       13.81537931536791
C           11.21732768548034       13.49720170316588       23.11845825055456
N           19.44413984177574       21.10657881143448       22.21086720758890
O           23.80664331002166       20.22337415200313       17.26189632075061
C           11.67719887308938       11.59037517361862       24.29055963697702
N           20.61316900768433       21.16921680737044       18.76193230256778
O           20.31355998609416       23.39629304267078       18.52647749516182
C           13.02222043997694       11.62827550852677       23.95670016698744
N           22.06230175691372       21.33143866843944       16.38250665523648
O           17.43245411579450       21.07208455353308       17.89776495253360
C           13.45696474275068       12.66031625600992       23.14586387598143
N           25.55979911004761       18.71038237233163       14.39675943088961
O           21.46471654508039       21.06042642331796       21.23437645991573
C           12.54694145398283       13.61608718792502       22.69369457958572
N           27.27143149784003       20.90482335392061        9.71757465270343
O           15.34720255345616       20.74524695540300       22.60712990296081
C           13.04415662210135       14.68220965953085       21.81494259970484
N           16.00205066756519       18.92264527119902       18.98254067506326
C           11.98339605650983       13.73002716798371       19.74696456407792
C           12.91823530758203       12.65791817454192       19.18986460357518
C           13.94852729641472       15.67272760273871       22.12529499564611
C           14.55306749887449       15.96313484998843       23.46111138520789
C           13.92924904025726       17.14630124705777       24.23917405696638
C           14.52735111699403       17.16741817948640       25.64863930672084
C           12.41218041382172       16.98835630752890       24.32811352751457
C           14.21959984229403       18.48491463314911       23.54933001185619
C           16.06445926123172       19.84200349215725       22.97411617186888
C           17.58315238266236       19.89380103085424       22.98776072552983
C           20.24092355685533       21.02731368207612       21.13454551616296
C           19.57581607964171       20.98891011819941       19.75452638270578
C           20.95438149467577       22.38239217983102       18.29715179893551
C           22.20962504779238       22.35286887962422       17.41558905594051
C           22.56798632723344       23.74042483891277       16.85163451609982
C           23.59142449258624       23.62843151126735       15.72305187324089
C           23.13592689168012       24.59780164889058       17.98135407921146
C           22.92317193934775       20.30484188903439       16.40804053990910
C           22.86990115936905       19.22736468421918       15.30990245290642
C           23.63663090582843       17.96307998387289       15.71543985042650
C           25.15398239065907       18.14860292720743       15.66375848023773
C           26.35065915637824       18.02295385764559       13.55447431409008
C           26.66283121837671       18.66785176140648       12.30463645318970
C           27.01448549838219       19.05184051883541       11.21834947157202
C           27.41128515192761       19.45136567512370        9.87181991130189
C           26.00134754458228       21.44153533584066       10.15871576805375
C           27.59699266651829       21.40412331828818        8.39661197744039
C           28.89158617220649       19.05468181114727        9.72357662380236
C           26.54760609468018       18.61720880721905        8.89965930690101
C           24.92914923183992       19.96889801183200       14.09056334196544
C           23.41471804583132       19.77427759442447       13.98509110429255
C           20.91977070398794       21.51558793210211       15.51117424561577
C           18.77979716358618       19.71752844101657       19.46034557585251
C           18.05697600247298       19.81428183965306       18.10317226412996
C           17.01805707870939       18.69091958470650       17.97700960748144
C           15.31481765176965       20.17521861284916       18.72260369707978
C           16.34228075214742       21.30385048834919       18.77666339386221
C           19.99406687986097       21.32031603531134       23.54256025399054
C           19.56870700097521       20.18710356048669       24.47145084915385
C           18.04727208291325       20.06609331260457       24.44742402543915
C           14.21946189524044       16.35827991881381       20.90544764939621
C           13.43495821482033       15.74167633792537       19.89898790383038
C           13.48480728039259       16.17642433467315       18.57822419950258
C           14.32210998924946       17.22604348691853       18.26914304724153
C           15.12366656601542       17.82844766187207       19.25002259498063
C           15.08466135032741       17.39143951767329       20.55599281925533
F           21.53570682035983       18.81768476616506       15.11626589321047
H            8.69693640213391       13.93033952426757       24.17191758942835
H            9.83834854690130       15.15593972403389       24.73843713378933
H            8.54171003231658       15.61505689128615       23.63171956606329
H           10.65970153591192       15.42549422584398       22.36722318408341
H            7.77109681677091       15.14714763802453       21.48544682042736
H            9.21523710237414       15.72989845119386       20.61202280561734
H            8.31334987841231       14.30984347743007       20.01221931961151
H           11.27138133229719       10.80269964394337       24.91029690194232
H           13.70299779939817       10.87313529595173       24.31445593473754
H           14.49239599747691       12.73182959211705       22.84582244955039
H           11.24472736902888       13.27715808166926       20.41116755268692
H           11.45197721059180       14.22457432527759       18.93018659370761
H           12.34887049976206       11.93437090661877       18.61440585793475
H           13.67028215560302       13.10875520133722       18.54615232602869
H           13.42245355949886       12.13880661292295       20.00173091921915
H           14.45599771899055       15.07441527108673       24.08750526709031
H           15.61545456966363       16.17455658980962       23.32607732482554
H           14.24211874606792       16.26989847546719       26.19112483939286
H           15.61177573893337       17.21522704245131       25.59947181104119
H           14.16718332371895       18.03170145723551       26.20133152902292
H           12.16441800678977       16.01229304958268       24.73669846677653
H           11.98457679400373       17.75421411309517       24.96985813072680
H           11.96189282002546       17.07498610612993       23.34292648251389
H           13.77891111248043       19.31351073345805       24.11329407856426
H           13.80584464473181       18.50460884423720       22.53673852127158
H           17.97420194010056       18.94819132016216       22.59692603740791
H           17.58981962109503       21.83971272956195       22.37515945250848
H           18.92403416826830       21.86562144313758       19.67604509773810
H           21.28301879600533       20.41735328080726       18.68214230392323
H           23.03740748861038       22.02164163371823       18.05654894153777
H           21.65356522993951       24.21979930233637       16.48884509831723
H           23.17811892111989       23.13753878896744       14.84700662714165
H           23.92373227857223       24.62071525359561       15.43206750911364
H           24.45598219703703       23.06183608654750       16.06289577918202
H           22.43426315635990       24.64518888801224       18.81042796177957
H           24.07280748063384       24.17691976873884       18.34114544330184
H           23.32036125355678       25.60849746962660       17.62853785501681
H           23.34989799585924       17.67239252097501       16.72607685378343
H           23.33643039909900       17.17091227831416       15.02619649070755
H           25.65203201425628       17.18459666700410       15.78060670958990
H           25.46483277566301       18.82111156722539       16.46805792521553
H           25.15206127962688       21.13522018649012        9.52880996282993
H           25.81033952855252       21.12707275073517       11.18186835748273
H           26.06671903648600       22.52810398941582       10.13642253134214
H           27.69139017898757       22.48776108310292        8.46300334149245
H           28.54874207580691       21.00210790449875        8.06440626928447
H           26.82640443700629       21.17388522138131        7.64637425433120
H           29.18497464685415       19.02502868389520        8.67851695740151
H           29.51432846446585       19.76917404250569       10.25414007478050
H           29.04828250442879       18.06735262198002       10.15079042350395
H           26.87525629817642       18.77739886789844        7.87614051657932
H           26.64812498668696       17.56205976323116        9.13976207655440
H           25.49851349446710       18.89045378882711        8.98790280643869
H           25.15655095970382       20.67736278822848       14.89388878976981
H           25.32696876898879       20.35392915473491       13.15193357127717
H           23.19285781044973       19.04543933103804       13.20287182259015
H           22.94094976183703       20.71994148978784       13.72808889239784
H           19.99621532073692       21.35519725186137       16.07180873805740
H           20.91543237648083       22.54044495641647       15.14535372882717
H           20.93569956060378       20.83782247078657       14.66769742331299
H           19.44999957932052       18.85849371745960       19.43673317525700
H           18.03169428108857       19.57006720682009       20.23540868746270
H           18.78244108287702       19.73881858999886       17.28626165911075
H           17.48567725521655       17.72254361069605       18.15879731855607
H           16.61034233372278       18.70439611923581       16.95060368913837
H           14.81391049756037       20.17256843267382       17.73761287416966
H           14.56664524979804       20.33512816104003       19.50124366766055
H           16.69351866476666       21.41025288795181       19.80942582936930
H           15.90297902278409       22.24578275214784       18.44506947817752
H           21.07742234239339       21.37353298528049       23.43860543538165
H           19.61977077709946       22.27925850941285       23.91772149693609
H           19.91777650506356       20.39567033691300       25.48155422276630
H           20.02055319137175       19.25356875446855       24.13330427752989
H           17.59433043094814       20.96978674473088       24.86233842575835
H           17.71644958811968       19.21082074430158       25.03446803688132
H           12.88863104212498       15.70918231384113       17.80929549466160
H           14.37312277536620       17.58675357615573       17.25197554621796
H           15.74191558009674       17.84973301241514       21.27437770980531
