151
 energy: -221.319715890035 gnorm: 0.007050559594 xtb: 6.7.1 (edcfbbe)
C            9.35168377444268       14.53171450567242       23.41217426838007
N           11.23967427738823       12.44038839735036       23.71709485592894
O            9.85044735855484       13.36965087357194       21.30116723857509
C           10.37831230377779       14.21104194436050       22.32670077174891
N           13.05462067474355       14.89125007659491       20.37866791056296
O           15.57601553565398       18.91234080875489       23.64918112578439
C            8.96549376914578       14.00540616462822       20.40579737864157
N           18.33161817198287       20.85455006023811       22.40250571215061
O           27.14969606376153       17.00040219198270       14.23220217735266
C           11.55018322423777       13.44745008821845       22.91264469172882
N           19.71083705522877       20.63175307125319       22.30706475179838
O           23.84206944409177       20.46018497040619       17.14928966389605
C           12.20561809582460       11.71145248716410       24.24603618867696
N           20.61348355380350       21.30922276476511       18.86691088974202
O           19.87166527884733       23.28185315906111       18.04181783953138
C           13.55133426217635       11.95276090800618       24.01546695122254
N           21.83703091886964       21.08052725881230       16.33885753663094
O           17.07964528469701       21.95088048210190       18.68551737795050
C           13.88421935401748       13.00597879011817       23.18479806622933
N           25.63670467586948       18.65708068621090       14.57996567629892
O           21.52710785855980       20.26915618760431       21.04254601858252
C           12.87565107928295       13.77509169329336       22.60271124143216
N           26.71198663969146       20.62992946552575        9.85911680928236
O           15.65128672901700       21.08189800973182       23.07658510504434
C           13.26766670848018       14.89429064328148       21.73907274612586
N           15.74949113046097       19.54089980798688       19.13792846674368
C           12.57094007222380       13.77548383600495       19.60439795694517
C           13.72183844343307       12.89223389485739       19.12482801959277
C           13.95604498216462       16.02491595539885       22.11803965267627
C           14.40313972531541       16.36159193196530       23.50494958240196
C           13.66665999037486       17.52391963877475       24.21607367389966
C           13.96444204017709       17.43117974117245       25.71585196559505
C           12.16083131444223       17.41993008276538       23.98040312698123
C           14.14228510836554       18.89603833094441       23.71171185754784
C           16.19238887728023       20.01538940546596       23.26325093201197
C           17.68165971844821       19.74871723400754       23.10306167759692
C           20.35073955694900       20.61432954618948       21.12830494758130
C           19.60468333203525       21.10205678121465       19.88557567965537
C           20.68955432739742       22.37588042798882       18.06122607299183
C           21.90164507963270       22.31388052034953       17.11741429403449
C           22.01159976794140       23.56753340664803       16.22855844050790
C           23.01261872569465       23.35061475268295       15.09649645356789
C           22.43717675314306       24.75485863834129       17.09013962009110
C           22.88062451825598       20.23687813810333       16.41710174338643
C           22.92042516907456       18.99785439935395       15.50528114878883
C           23.83300675826463       17.89426980713837       16.05528612541707
C           25.31859432448107       18.23216602019593       15.92334754916537
C           26.54139225037702       17.99801696487373       13.83663395672532
C           26.79054650449384       18.54894178408558       12.52936684906214
C           27.13430672228470       18.92356939792684       11.43823439711378
C           27.52579790802447       19.43659314122084       10.12768048207346
C           25.28675244371982       20.36839015473402        9.80807664649442
C           27.12771299118894       21.42072743063484        8.71972434021736
C           29.01261483531592       19.80879455192057       10.24687832497433
C           27.36167558792776       18.30113947117123        9.09677919523871
C           24.86008689967637       19.78245684716239       14.12299681996589
C           23.37876221278244       19.40069515609155       14.09779775824322
C           20.61559633203237       20.86252187281746       15.58935218869285
C           18.55438550052909       20.09878654213467       19.39092532050807
C           17.65046212987362       20.71148721746244       18.30469875457903
C           16.53770325734966       19.71412262847421       17.94319334116207
C           15.09619784861770       20.77986246703521       19.51050051659237
C           16.16085548683083       21.84795988438343       19.76148782049515
C           20.42812804411467       20.35708783995338       23.54760539194709
C           19.79316731090312       19.18055279707882       24.28237444740100
C           18.30829070943794       19.46760725390911       24.48064568324988
C           14.20706989741704       16.75334235555500       20.91911548221604
C           13.64389408603301       16.00832870448138       19.85191367375868
C           13.77060954195461       16.43243329652042       18.53420629853279
C           14.44949416963517       17.60678309356791       18.28205896257294
C           15.01463024366420       18.35306087841922       19.32613679192432
C           14.90782745165047       17.91749436447693       20.63318256172427
F           21.64283546613325       18.42286526783699       15.40722339152058
H            9.01438838296519       13.60324517179654       23.86319178300682
H            9.81387729858644       15.15294895671446       24.17352887159052
H            8.50318936990580       15.06672486770495       22.99480669562044
H           10.74300277699670       15.14412244699523       21.86764282933282
H            8.05083641982417       14.34294285290389       20.90263146056785
H            9.45022829116501       14.86243328405297       19.91952085917746
H            8.71489221378536       13.25342941064333       19.65986980784288
H           11.87775414562274       10.90400941670423       24.88615515301087
H           14.31030901676919       11.33693296925004       24.46994985172474
H           14.91675322591230       13.23800908919617       22.96693537763886
H           11.88260539444240       13.19035472942119       20.21861559380086
H           12.01847637589473       14.16835182912270       18.74628768862506
H           14.41698410854982       13.47062921033542       18.52038834871673
H           14.26105226669335       12.48249774996032       19.97595682641705
H           13.33402963063570       12.07136816075919       18.52948765439800
H           14.26780378319522       15.47125464528694       24.12162263231272
H           15.46774572708629       16.59978591617605       23.48469077362361
H           13.44763677362527       18.22011672522799       26.25804433010022
H           13.63409196234918       16.47263167030788       26.10869171478400
H           15.03280097022677       17.52930321755881       25.89273036465670
H           11.63241807518838       18.21382245468479       24.50005884376293
H           11.93280971265122       17.48759513003146       22.92028829689129
H           11.80125214159620       16.46255311217911       24.34441290354186
H           13.80610794348286       19.69474130372101       24.38057101861897
H           13.74901200804084       19.10258815811990       22.71194630320741
H           17.79469043422771       18.85443944962388       22.47743164587802
H           18.13927110194060       21.73187548561539       22.88842651537390
H           19.11476478672665       22.06022665604112       20.08603964243089
H           21.40481810540553       20.67983864021489       18.94528011897212
H           22.80739095864763       22.23945076449796       17.73086460101466
H           21.02455808663991       23.78918464118232       15.81045213461636
H           22.65627042075598       22.60770965078637       14.38908528884647
H           23.16897745669398       24.28270130945539       14.56124704413470
H           23.96809990811527       23.01933437576515       15.49899356629575
H           22.50322892414069       25.65178191748338       16.48023426918114
H           21.70877473576018       24.92900201917468       17.87806712017295
H           23.40880751725569       24.56820768798716       17.54247682753179
H           23.60049819158307       17.71747050101887       17.10581832670946
H           23.60789080887513       16.98636972239183       15.49114576719821
H           25.92474471583303       17.35319520909074       16.15121941401155
H           25.56747093339932       19.03848953575174       16.61973583388772
H           25.01065314263764       19.68950048432657       10.61271897232425
H           24.76160811641517       21.31368103430319        9.95137394324592
H           24.96078266324390       19.93491550593610        8.85100336156761
H           27.05335668595192       20.88267892071852        7.76278694232105
H           26.47928019423718       22.29312708358451        8.66606433012261
H           28.14800462941038       21.76706830136630        8.85538078274587
H           29.12106198613061       20.70303315374029       10.85527550918108
H           29.54866208440725       18.99419615302731       10.72919549328857
H           29.45009312465331       19.97585097431806        9.26648115375346
H           27.66709941352268       18.64489222496713        8.11208387207095
H           27.98579387648698       17.45849493401133        9.38139123505652
H           26.32934595592033       17.96405036288724        9.05375374666975
H           25.01398313724413       20.61531082398162       14.81673354528514
H           25.19430734746359       20.08031582536099       13.12891911601824
H           23.22882137337486       18.54254979956231       13.43856059277432
H           22.78932304396716       20.23515919538168       13.72016884574442
H           20.81848429628177       20.62726652039774       14.54675636078475
H           20.03446523051319       20.04627142911436       16.02007519111367
H           20.02255259862715       21.77172323126583       15.63422038102930
H           19.05621882796654       19.22453391244726       18.97585193609105
H           17.92534616343498       19.78529166496238       20.22068945793220
H           18.24127329306170       20.96178753298171       17.41887482110003
H           16.97108455996723       18.75665192984595       17.65203744847583
H           15.95338192743405       20.12301390287539       17.10033898929598
H           14.41172998389852       21.11693335641722       18.71204095009782
H           14.52012665921150       20.63397128341336       20.42489454839602
H           16.68883158205304       21.62819849476939       20.69779210246774
H           15.70069317755374       22.83386880006484       19.83871869791662
H           21.46401431172411       20.15267093964959       23.28090267385118
H           20.38569161025272       21.25703823113087       24.17020540595411
H           20.28964746518064       19.04102135185191       25.24147083209687
H           19.91926642747407       18.27259523195761       23.69079939261344
H           18.17827479378873       20.34296541081289       25.12152206744921
H           17.80386392620415       18.62055466497454       24.94244352339425
H           13.35278895684308       15.86246375599247       17.71835897647051
H           14.55500569260439       17.95405130414031       17.26539112656978
H           15.40965500001863       18.48026787835672       21.39839819806406
