151
 energy: -221.324382304891 gnorm: 0.004221065843 xtb: 6.7.1 (edcfbbe)
C           10.11457379778331       14.40112396127500       21.27111749674867
N           11.52980112544942       12.39627199982012       22.67799375433664
O           11.35176969081839       12.87896069761829       19.78226618335197
C           11.46908175621453       13.88400573634316       20.78782770311263
N           14.67819940342070       14.19476388140223       20.04102526810097
O           15.53383145604821       19.08656053952603       22.98111437212752
C           10.83516687944651       13.32885227060302       18.54929417453279
N           18.03294751672682       21.55271971176671       22.32977916947409
O           20.14160155639351       18.33119856401680       12.65932059553832
C           12.22887282012202       13.23603431445663       21.92904685901023
N           19.24626121418185       21.91228438706212       22.93056455685662
O           23.28661816964148       21.14503163832715       16.83777431596492
C           12.11699615719529       11.78548010974782       23.69120936229941
N           21.47905872527488       21.88534976873436       20.05176761037015
O           20.95506906196107       24.06243942025427       19.86237015528609
C           13.44511076987107       11.98940119553232       24.03132239371972
N           22.10112673652350       23.02603691911252       17.18900606950345
O           19.19367532647242       20.91810907162625       18.19709151725139
C           14.18369057902957       12.86345463618379       23.25520349215722
N           21.75179176608809       19.19339280394678       14.00537770908160
O           21.48766339000741       22.06802047855276       22.76996798192491
C           13.58456999165332       13.50233162936938       22.16953418024111
N           24.98064028123147       16.71309617523774       10.42244760968926
O           15.38115130243029       20.96023795414643       21.75782565894722
C           14.38506853357640       14.43203245460786       21.36711031388510
N           17.75171282011964       18.68036484794069       19.05662935265731
C           14.46538353734649       12.95426520905466       19.33667609973761
C           15.67137963464566       12.02686811741444       19.47446005163710
C           14.96774154320907       15.60892698761331       21.78254089172326
C           14.90875574837860       16.23286190232180       23.13921763074976
C           13.86258575386256       17.35903077409175       23.31545693831426
C           13.77874638686596       17.71422520543172       24.80237806876569
C           12.49441829956084       16.89351956229129       22.81905635474853
C           14.25707416119587       18.61346589338923       22.52413343743308
C           15.98048446455929       20.24145355477933       22.52613633613351
C           17.33085305272933       20.56538437595660       23.14313363405097
C           20.40268462025563       21.83726820423396       22.25002340681762
C           20.26623083698544       21.53497429343348       20.75418966269172
C           21.66944583015868       23.11303149596998       19.56176135467292
C           22.75813898710354       23.19830919958994       18.48954024526015
C           23.55812348391189       24.50645670351606       18.58615240173216
C           24.43997501780089       24.70240428036713       17.35558247940124
C           24.41200583009304       24.44833522552883       19.85162931278097
C           22.51188539041950       22.00868195100105       16.42204774170288
C           22.02384479485775       21.90363912336626       14.96552379433676
C           20.66215248514098       21.20010681074886       14.87610426603245
C           20.80917800362100       19.68090626786000       14.98387288946194
C           21.32117928927320       18.62223600579331       12.86293779958047
C           22.34723176953148       18.32332753672843       11.89594895478482
C           23.10646158885803       18.03570890035319       11.00655035576587
C           24.07647407396609       17.76787232136564        9.94547221342885
C           25.67955556678395       17.03945859423909       11.64881413791505
C           25.90837320087371       16.19632740373492        9.43781000113483
C           23.27420989745811       17.27707392059745        8.72910658202093
C           24.77510359945965       19.10070125555690        9.60026924920467
C           23.08321382704603       19.70590943693989       14.20970150161995
C           23.07432160021546       21.22712168658882       14.07197239754648
C           21.04384230738772       23.96853671074571       16.88870654800296
C           19.89978528801786       20.09075186693441       20.42415930466098
C           19.83321695239775       19.86116872617939       18.89834273852869
C           19.12302119349653       18.53074250352804       18.61842171975704
C           17.08065346146138       19.69338045132662       18.26296732432372
C           17.80528151927949       21.01945171424084       18.47805130121027
C           19.18414045736949       22.40763304894855       24.29754635481635
C           18.47211802559525       21.39742598400593       25.19389298481689
C           17.11317772088121       21.05180725841656       24.58851610738602
C           15.67054423115535       16.12236390353938       20.65507613774840
C           15.47402104028927       15.20841589962779       19.58902276480290
C           16.04781121483670       15.42376330654941       18.34059992158092
C           16.80049167311995       16.56348136534542       18.15784233303817
C           17.00544315432110       17.47195335817386       19.20587443085393
C           16.46348233795774       17.24785691462767       20.45238683028541
F           21.88893792338411       23.19574155327285       14.42310321638118
H            9.51429848316512       13.56095059170780       21.60575018995089
H           10.26539208532273       15.08502499331795       22.10050982097965
H            9.59836456865173       14.92848702852963       20.47419324533591
H           12.06133321269591       14.72018949974735       20.38000365092561
H           11.00678446981059       12.51933893584326       17.84320292880453
H            9.76319148787224       13.53394003401814       18.60967437636646
H           11.35905045988980       14.23002282367152       18.21183057612838
H           11.48584193221714       11.10997912036779       24.25164997211941
H           13.88495759317799       11.47759247848083       24.87166065623350
H           15.22634861011334       13.04742547409533       23.46894122257310
H           13.57213522654599       12.46810372417195       19.73261449991364
H           14.29074091641034       13.18660682356972       18.28324050794544
H           16.56989840198333       12.51638129192592       19.10604700642275
H           15.82403188316768       11.75938703070533       20.51726571013878
H           15.50468147247376       11.11916574432914       18.90226260336718
H           14.67723945540795       15.45849340534191       23.87216703264829
H           15.89049984581710       16.64659582459972       23.37491756416431
H           13.05311485474470       18.50776413214215       24.96273209091124
H           13.47272610265409       16.84658436041171       25.38009190592466
H           14.74657985666099       18.04997378252823       25.16482191248989
H           12.50845829074740       16.74287302941519       21.74296070455812
H           12.23239531528953       15.95210052022257       23.29526977613012
H           11.72978812615752       17.62898025230655       23.05494808732460
H           13.51980155624376       19.41030758399766       22.66459477482395
H           14.32891541013496       18.39724543314134       21.45445931554287
H           17.93619437974210       19.65291100254660       23.15989363280856
H           17.43658017996931       22.37197763871015       22.20174988911859
H           19.49185219199200       22.21677105944061       20.38192100278455
H           22.15474898654933       21.15793112054188       19.88042606401835
H           23.44618215993885       22.35363854756035       18.59045134902302
H           22.85189606471363       25.33703138978154       18.67921136689572
H           23.84603219480572       24.80462056870191       16.44990754647247
H           25.04358741040810       25.59803311347030       17.47190745420984
H           25.10468233895593       23.84911072182067       17.23267301233838
H           25.13427981761245       23.63758195440123       19.78320339040796
H           24.95139207199795       25.38161914568984       19.98382701563813
H           23.78702877376565       24.28246207227659       20.72703342396456
H           19.99750060894917       21.54297584832920       15.67015908410507
H           20.22178159389338       21.45218011701500       13.90840559518673
H           19.84543367746266       19.20333314023108       14.79930957432649
H           21.17057087506243       19.41046559559736       15.97936851550785
H           24.97703515459146       17.44011641345246       12.37615706479762
H           26.10626527542862       16.12166041717930       12.05194243748717
H           26.49710516072114       17.76192466869175       11.50281085268596
H           26.69983537055137       16.91188952418837        9.16878083443453
H           26.38396694263760       15.31365290883999        9.86445200717911
H           25.37953700962423       15.89386440521164        8.54005800348810
H           23.87014921605804       17.33256209752543        7.82235182902047
H           22.94897162629882       16.25296805872558        8.89099050547948
H           22.39455208122472       17.90321605815816        8.60072378242436
H           25.52523979720623       18.93504354029698        8.83127838725456
H           24.04266481026334       19.81027910227695        9.22558255239133
H           25.25236352389151       19.52851516089822       10.47833256764066
H           23.41376425178242       19.43375712542735       15.21488053807684
H           23.76033778548632       19.27463721212106       13.47251667202518
H           22.83056207056394       21.49579432522250       13.04148136790992
H           24.05950308066132       21.62482536447216       14.31329753320561
H           20.53710087181527       23.72860939204985       15.96459044987838
H           20.31155167872625       23.95126511315863       17.69617096953796
H           21.45027526433436       24.97727603462864       16.81789081338908
H           20.64599845870928       19.41569932099195       20.84254309948438
H           18.92568585585839       19.85772186814287       20.84901477347942
H           20.84105909127739       19.84178286425484       18.46989128977323
H           19.59205301095488       17.72952292358685       19.19069148568574
H           19.20310275360375       18.29675912711885       17.54215843168307
H           17.07644346845256       19.43785400882146       17.18800595491990
H           16.04945291974755       19.78818656858071       18.60827454765356
H           17.64364677081542       21.34580402207718       19.51146059613928
H           17.42748092302164       21.78230673981327       17.79546713836078
H           20.20892264413036       22.58615496538303       24.62274834802846
H           18.63871906773717       23.35867917488536       24.29331068439058
H           18.34702152982679       21.82197713666674       26.18872134752364
H           19.07867840355048       20.49478850635804       25.27449925835549
H           16.47144088647195       21.93670094157460       24.57491544266511
H           16.61783025871016       20.27335690225412       25.16694001859870
H           15.90751982069551       14.72816335514414       17.52693576756854
H           17.24626270225983       16.75920055719603       17.19337203619045
H           16.67250191434205       17.94555420731750       21.24495149714699
