151
 energy: -221.318772845191 gnorm: 0.007371226259 xtb: 6.7.1 (edcfbbe)
C            9.99979349265828       14.88692538251199       25.19187090519054
N           11.15224200940235       12.44012751933411       24.38935427779118
O            9.25567540818762       14.20469543977532       22.94779108194132
C           10.37124923171046       14.62224829591310       23.73351662691832
N           12.05702072519816       15.13249564214097       20.84895118081742
O           16.57280844731674       17.79910872377703       23.18028986440127
C            8.28632251480884       15.20551434429926       22.71753608592141
N           18.77963022409936       19.97616339258927       21.37765579778638
O           25.39342672632833       17.01773259457030       14.30498539585663
C           11.38312107894738       13.49811110235803       23.62474103468628
N           20.02902840620398       19.83806488210980       20.76287646162940
O           23.21980816497504       22.20492548765447       15.97394524575945
C           11.97201423078821       11.40650885180794       24.33427474859872
N           19.69350229944046       21.43399414188513       17.54710298428094
O           18.91256820483575       23.52969558384175       17.84733545546142
C           13.08342337667860       11.36430864977637       23.50650010297844
N           21.06550302746363       22.17774163363920       15.33000780740711
O           16.39905690214338       21.83013403702303       18.62154684304254
C           13.33596742737322       12.46506059803603       22.71024204635203
N           25.00458160832861       19.21064599577801       14.74213521433565
O           21.29743931101474       19.94977392924771       18.91450605950971
C           12.47717416151004       13.56542110289499       22.75262108070727
N           29.84086450938074       18.70418122649149       11.67159822319353
O           16.59427074530563       20.03653928624463       23.02876092203476
C           12.81274901392427       14.73213279368212       21.92822831787835
N           15.16048052995401       19.39441226206730       19.21703316330649
C           10.93877948383987       14.42339159658609       20.28086966885908
C           11.38594985606158       13.48639717155492       19.15972807147376
C           13.92509459363016       15.53393707023994       22.05967519407056
C           15.01536433915098       15.39474730728430       23.07498104405207
C           14.96574225347498       16.36534949911096       24.27816368842561
C           16.00203435936389       15.91248072911526       25.31132967850677
C           13.57514132417111       16.36169502560030       24.91097013673739
C           15.29946310476935       17.79702568232917       23.84210040421256
C           17.08177828087589       18.95336124074392       22.79472024559423
C           18.37845810016361       18.73381541756683       22.03087488898609
C           20.22215368730986       20.15387960424011       19.47616091526833
C           19.08400358577940       20.85408891301094       18.72756510283982
C           19.68876026969215       22.75855040084011       17.30586205049815
C           20.76100881256195       23.21669295650408       16.30658472799632
C           20.44897471013908       24.56710229584422       15.62794030720852
C           21.45213483251408       24.84565796413219       14.50682000418557
C           20.52239514586724       25.70230577784728       16.64947041351776
C           22.35179528162105       21.82283886606210       15.18935107640056
C           22.76804533449085       20.89055632994280       14.04147529281161
C           22.60616634303159       19.41403970910218       14.42903725671910
C           23.72805808448602       18.96519192175591       15.37186522269552
C           25.67560091552450       18.20700149801688       14.14339945319287
C           26.75126196727076       18.60697588041669       13.27302837571414
C           27.57381110800705       18.78336401975649       12.41089354932748
C           28.48076951301352       19.12267167194376       11.31631736942016
C           30.30280283899666       19.20776586914561       12.94881881516634
C           30.83732233052013       18.93789969513338       10.64613938548303
C           27.98997384890218       18.31770921667751       10.09808532533954
C           28.32263030764262       20.63358077642973       11.03669326902604
C           25.26029489572020       20.61060181412392       14.51065761683015
C           24.20024153005426       21.18847072859390       13.57227893289895
C           19.95306496305801       21.74733171810137       14.50533661888566
C           17.93002328627789       19.90476185552811       18.37890849371957
C           16.69150332099325       20.66698311062825       17.86561817118073
C           15.46469691432012       19.73645843136167       17.84451476430170
C           14.79727095777861       20.58563064189042       19.96701906324814
C           15.97678892007684       21.54997341225794       19.94524560067725
C           21.12605815976915       19.36481104493259       21.59533248442029
C           20.75932185131064       18.02838927128512       22.23412451087886
C           19.44716984337119       18.18628814571654       22.99644569802235
C           13.85807891799877       16.48060861734687       20.99589944687473
C           12.68674717771533       16.18979721203968       20.25381246650246
C           12.34148665900199       16.93067436366476       19.12791483420839
C           13.15356604036705       17.98374240796077       18.76024847107781
C           14.31261419228637       18.28832461245357       19.48808242990258
C           14.67723743173352       17.52413854286201       20.57965201055265
F           21.95928213250132       21.13612050066741       12.91440853982349
H            9.52749783860087       14.00065396454247       25.60448485053088
H           10.89839494573837       15.10916133841025       25.75899565378075
H            9.32193821279012       15.73240975727609       25.26722220949452
H           10.79332263028052       15.53767810225769       23.28481612685950
H            7.72587036747507       15.44132905176913       23.62600856843871
H            8.75488043383731       16.11742318133040       22.33113382602466
H            7.60874513858076       14.79439405738600       21.97245699082198
H           11.72110701042156       10.58138221113907       24.98670670377092
H           13.72804314391914       10.50084950642140       23.48552232893850
H           14.18451495956488       12.48655658226001       22.04189987913984
H           10.44415298887901       13.85355570213409       21.06898592036971
H           10.23069749882593       15.15936995865994       19.89134909280683
H           10.52275509117607       12.98712364374989       18.73084273446235
H           11.89548992642044       14.04590055369298       18.37824186223802
H           12.06847265428579       12.73375286798618       19.54808558779584
H           14.98351659673165       14.38040030406586       23.47772426258635
H           15.97522616254234       15.53284612644437       22.57306422433341
H           16.03947593384469       16.61467474941698       26.14377434353097
H           15.74215782300362       14.93052929861022       25.70072571038659
H           16.99128977955025       15.86004758834061       24.85754712811228
H           13.54362691225261       17.02192086559138       25.77430775319982
H           12.82750575385677       16.68983435508600       24.19531544607607
H           13.32336712243197       15.35458095975298       25.23329984127005
H           15.34999556669546       18.46958226162682       24.70409209580329
H           14.54616247259843       18.18421035503638       23.14950658807163
H           18.19606499112581       17.98855562471224       21.24711670398164
H           18.79481787448357       20.73187605595323       22.06507931640070
H           18.69369992279302       21.67704723501681       19.33513611213913
H           20.48470064094977       20.89124768640545       17.21328514682998
H           21.67499650748028       23.34391360408414       16.90565291189856
H           19.43537183117228       24.52892144104424       15.21824625572281
H           21.31290470030530       25.85729940553732       14.13934128068593
H           22.46704189911696       24.75505256288977       14.88953963882620
H           21.33890064254252       24.16131913886124       13.67060323939847
H           19.81609826278139       25.53694940291495       17.45657545407363
H           21.52528460002300       25.76679794143309       17.06627592027881
H           20.28515215367709       26.64579667134663       16.16740430712750
H           21.64179941034223       19.24098268673806       14.90548652642562
H           22.65229667108652       18.82524901026903       13.51008391017967
H           23.64258280039773       17.89578101911824       15.57248087670374
H           23.67961977575423       19.51992655740472       16.31319912848200
H           30.53469046211841       20.28279825285042       12.93211837079987
H           29.55037988297606       19.01896386877087       13.71078203059470
H           31.21267307760038       18.67326218238283       13.21791851423285
H           31.75414227554991       18.43311929975306       10.95251861110355
H           30.51540709020992       18.51096278315102        9.70112913164822
H           31.06854768277066       20.00497326409322       10.50334160492806
H           26.90554601066430       18.36940508031745       10.03733661314488
H           28.40286547441825       18.71897028853365        9.17754508763968
H           28.28368766683279       17.27815678746807       10.20767141185528
H           27.28051685566781       20.85554168222747       10.82464566467812
H           28.63257779195967       21.22032758303371       11.89766637468402
H           28.92132039232770       20.91863684330222       10.17557822466440
H           25.21497114642898       21.13225235773807       15.47062634338504
H           26.25105821362281       20.73588039772466       14.07247951806069
H           24.30894775134078       20.74273892676692       12.58065620864705
H           24.33632114085806       22.26730217325786       13.48730991052429
H           19.04067860216635       21.86522626750260       15.08393789191580
H           19.87524454041828       22.34667813498505       13.59795898934063
H           20.05597557190279       20.70406232633213       14.22194029657743
H           18.25056266087695       19.20074965134467       17.61166604262595
H           17.64210135721150       19.35435153583197       19.27237695764018
H           16.88401436991475       21.05612871556654       16.86051037701831
H           15.69021686963103       18.82438965454571       17.29082430316191
H           14.63624212232900       20.26908404338255       17.34479912165387
H           13.90213552246990       21.07295512461373       19.53580542632665
H           14.58070003821466       20.30983803627438       21.00108110934644
H           16.79420511006971       21.11863135549053       20.53231317648361
H           15.69879090471677       22.51501096083861       20.37033173745052
H           22.00453683503184       19.28114923229132       20.95712890600390
H           21.31337480215569       20.11488825076530       22.37198760019618
H           21.55752417650058       17.71969574584382       22.90574319433758
H           20.64787471613877       17.27315517642855       21.45507286370796
H           19.57646098812707       18.88542973124188       23.82618272771542
H           19.11284390898976       17.23049139514843       23.39692257188808
H           11.45587067138268       16.70474123273829       18.55452042356555
H           12.89103679896183       18.58994555309372       17.90428564832442
H           15.59591928391453       17.76351227986125       21.08397754058242
