151
 energy: -221.322910843682 gnorm: 0.005902286611 xtb: 6.7.1 (edcfbbe)
C            8.71678902067722       15.24700484326398       22.18444086997538
N            9.71228230599195       13.65406475679563       24.26158883486298
O            9.97697703156192       13.35241228592616       21.25529007442510
C           10.06371871034080       14.54012606393275       22.04071818058726
N           13.36748733085911       13.96862452952834       21.69374527748584
O           14.87434524886810       19.39361087714303       22.98409925216191
C            9.80488036991147       13.57552094963183       19.87242732198245
N           17.88667883431808       21.00961749207464       21.93600123457578
O           24.25248725843080       17.65669805507209       10.71345292326632
C           10.59913004803781       14.12745141058490       23.39856344470459
N           19.17934943827177       21.18970750191318       22.44112160563576
O           22.77136695838892       19.14346293969871       15.97876305690425
C           10.11051903023794       13.30081119164443       25.47055873469849
N           21.16742415432969       20.34417985563276       19.51358695773166
O           20.62636059938030       22.24812840913621       18.44546482132255
C           11.42063673552131       13.42709344857929       25.90551700804148
N           22.41230889173779       21.33162040399219       16.36910114997061
O           18.54559072163833       19.33103306875477       18.06057990437064
C           12.35562826625654       13.91060980978089       25.00827287414941
N           24.23085174158181       18.95608208734475       12.57580493459732
O           21.39920632684608       20.98707593538886       22.12972641785431
C           11.95820864455402       14.25321006747167       23.71689579131530
N           27.11077297101470       20.88883781108416        7.94197052187238
O           15.22091190957521       20.95967246579986       21.41924466033542
C           12.96282433612727       14.73745712257801       22.76224946124252
N           17.01068129811868       17.48594748649981       19.49878050568368
C           13.03107902903838       12.58058509251363       21.49390443613114
C           13.79201232972698       11.67513200672943       22.46203882403303
C           13.64636011639344       15.93187889719011       22.78618234451666
C           13.55788850493584       16.98801112111944       23.84233759953999
C           12.77169830126452       18.27499107295204       23.49709366815486
C           12.55099216485400       19.06402623850972       24.79076311594362
C           11.42434915564868       17.92779933426367       22.86702329006891
C           13.54046946736337       19.15855093681146       22.50685307932191
C           15.61591724147288       20.27078043606801       22.33356269907736
C           17.02905550389791       20.32079729343533       22.89358075625779
C           20.25382269995010       20.84354625021158       21.71448112892294
C           19.96687573603519       20.30409461836456       20.31325212305658
C           21.38670486142606       21.30307091632546       18.60433978936888
C           22.66529169834535       21.09650708992161       17.78852644980918
C           23.82804707106818       21.94835841232306       18.33968055587824
C           25.04587132499147       21.81053556182187       17.42799615373781
C           24.17204062327523       21.49278417189116       19.75665208036677
C           22.46902311671995       20.26322734972639       15.56195982519004
C           22.23733947046415       20.44516992583387       14.04929545128578
C           21.92424960697509       19.11070938498257       13.36049266214136
C           23.16022391251933       18.22063524943249       13.20581829396991
C           24.63962982185570       18.65308033948286       11.33073344992613
C           25.55870708221581       19.58289817735893       10.73035281109588
C           26.27922278077563       20.28503226929435       10.06839415721980
C           27.16976761217829       21.20967424935935        9.37289599388254
C           27.47749148304860       19.52295119950208        7.62805985459965
C           27.78815219094692       21.82450502337134        7.06863754035100
C           26.62049360346156       22.62349389847327        9.62676595094848
C           28.57186562277391       21.07926428518514       10.00636260548861
C           24.61630458953687       20.14542861766472       13.29226440592650
C           23.43724527663477       21.11638755726558       13.36745604641984
C           21.93618959798318       22.64690011292961       15.98949453537226
C           19.40991425838530       18.88002734880770       20.32953934198001
C           19.15671658439246       18.36254266099589       18.90037158731358
C           18.29173070537978       17.09372040353545       18.95674658023695
C           16.34831829384936       18.41555883419325       18.60147473321059
C           17.22181458070972       19.65871795041556       18.45266082720774
C           19.29911719684882       21.85316159517847       23.73028776451925
C           18.46399351816519       21.11384585912385       24.77267015945937
C           17.02301089164507       20.99402182258346       24.27826539315899
C           14.52482556546567       15.90274739216975       21.66329455227983
C           14.33513008350622       14.65481055916906       21.01585547554989
C           15.07504156658933       14.30737641448356       19.89022398463851
C           15.97104872922359       15.22507499410736       19.38491258379401
C           16.15232426693374       16.47039745814110       20.00130816924555
C           15.45992959823213       16.79443490953678       21.14990640064968
F           21.10621845449287       21.25672992908993       13.84601456076083
H            7.99232107857814       14.55058473679220       22.59511347498254
H            8.82009169154909       16.09046333658466       22.85967511714204
H            8.37031182436881       15.61098120777456       21.22149429718616
H           10.79227992456600       15.21691137860152       21.56448654810334
H            9.93193699809522       12.60624278605398       19.39600956666420
H            8.80853186983097       13.96295503761629       19.64527379932412
H           10.56031909927848       14.27409816625707       19.49471234205265
H            9.33721287699608       12.91006127610577       26.11771947551249
H           11.69904771486008       13.14996521844396       26.90907302968039
H           13.39360388498289       14.01469815822942       25.28966788537465
H           11.95494940220840       12.44849331406860       21.62746672320471
H           13.28495039195171       12.32287866634812       20.46465602440242
H           13.63637193982986       10.63504884732153       22.19204038335343
H           14.85656793772961       11.89301894016403       22.42646609317912
H           13.43843966748474       11.82541904332636       23.47906573552615
H           13.07846218956350       16.54529699551849       24.71721503318740
H           14.57127818830235       17.28271135729688       24.12007888239394
H           11.98473821183181       18.47133236248960       25.50416308274883
H           13.50526245082114       19.32941215200113       25.23793400158199
H           11.99661539256275       19.97743918602929       24.58859608699407
H           10.86814604704359       17.26622598968732       23.52584585271925
H           10.83720734374378       18.82640751889489       22.69640415480968
H           11.56766911224740       17.42486515682957       21.91409134844681
H           13.04003156926830       20.12322812935292       22.37646692564091
H           13.60781387619905       18.67541898369825       21.52739538692353
H           17.39794684624649       19.29370081350486       22.99726351432182
H           17.46584724981290       21.90639697281092       21.68676073560110
H           19.25845858074130       20.98440289929528       19.82979456865005
H           21.86073468660153       19.63315131320821       19.68729321367752
H           22.95496756113473       20.04274229640129       17.85650674499552
H           23.51781846652807       22.99668410060186       18.38327727565796
H           25.29550002964007       20.75975581189648       17.29719572496786
H           24.85433575461047       22.24316217519807       16.44981974557373
H           25.89969729497404       22.31755166590643       17.86820586088594
H           23.32268437615391       21.59344463911587       20.42881215665571
H           24.49438976360171       20.45434314496520       19.75423412893804
H           24.98406506365523       22.09956308026045       20.14877022724454
H           21.16475680939118       18.57862417413508       13.93273499731126
H           21.51671358297862       19.34660609791131       12.37440466979487
H           22.92482026570821       17.36034886109363       12.57666987272700
H           23.48738120747887       17.87786802768730       14.19013408375503
H           28.56370916369664       19.34016543067666        7.67013919510584
H           26.97982951667175       18.84031853996902        8.31865098516798
H           27.13355581237096       19.29754404566332        6.61886807779433
H           27.63304420990228       21.49326912409894        6.04312687864802
H           27.35168151582213       22.81404643332696        7.17234513674737
H           28.87256704789464       21.88558720953747        7.24457353671146
H           26.40229550867541       22.74273595937736       10.68486618653444
H           27.34823054029818       23.37582975345557        9.33871401852027
H           25.70381489942455       22.76737750751255        9.06198362288267
H           28.93955769530428       20.05972565711279        9.92032984892472
H           29.26688254349894       21.75286922854986        9.51172164318055
H           28.52294629606427       21.34018749814739       11.05981364187848
H           24.91682295519506       19.85185018019142       14.30308067782515
H           25.45918646245755       20.61591684963455       12.78545723771605
H           23.13031680209280       21.39887399568238       12.35770855130663
H           23.74191441330073       22.01424480855707       13.90158552522407
H           22.27846846941720       23.36232522916435       16.72952182870372
H           22.30407099069556       22.93995392776036       15.01176998414484
H           20.84600082866957       22.67021805621618       15.97707352782239
H           20.11706692100782       18.21259838013800       20.82218187175319
H           18.46753951375101       18.86635648186243       20.87231375813489
H           20.10497982904505       18.14798246183799       18.39643072070939
H           18.74876336213309       16.35563883559653       19.61656745664784
H           18.21779059327887       16.67394039872516       17.93786131158024
H           16.17747066849747       17.95971077351044       17.60885850433777
H           15.38562792313689       18.70431434077242       19.02600000345650
H           17.22224287340622       20.21012890945081       19.40034881296606
H           16.84251897431118       20.30759856766619       17.66190691048382
H           20.35749508758227       21.86166823527784       23.99037381990986
H           18.94645742018176       22.88578233690008       23.62542383256355
H           18.49535878593592       21.65968716846763       25.71451635381232
H           18.88316810741632       20.11990771725641       24.93226854919292
H           16.57337302691274       21.98620292647208       24.19395775017999
H           16.42612357902656       20.39853620811587       24.96707781369494
H           14.95242916483591       13.34992533566104       19.40720954529780
H           16.54164994293057       14.98469291215965       18.49985420391275
H           15.66996825777857       17.73588246486969       21.62392929287081
