151
 energy: -221.322055738607 gnorm: 0.008684514090 xtb: 6.7.1 (edcfbbe)
C            9.34614435696243       14.69785261384496       22.19100721944188
N           10.59146073867709       12.84991672879564       23.92742919457660
O           10.43574058877126       12.85980557492882       20.96738564370931
C           10.64652675143842       13.99323870639243       21.80678746237609
N           13.82768885089079       13.88917803288124       20.98815418477749
O           15.19452863717896       18.98114052688736       23.26982547303971
C           10.03866804130900       13.16369336363674       19.64837078885339
N           17.81238919745868       21.12611292845897       22.08970948105858
O           22.41661725743516       18.73481179591934       11.25092363935269
C           11.35738088537558       13.46557195790674       23.03947730409753
N           19.15123185706753       21.36627821880864       22.42017500034274
O           23.74834180142346       21.50324597265772       16.32522254224482
C           11.13749754965716       12.35713591382830       25.02495128764217
N           20.81147620989075       21.45711331508354       19.19864267658690
O           19.72274729127929       23.16568371533802       18.20458704897230
C           12.49137136303127       12.45124018174375       25.30679325306756
N           22.09497273885826       23.02964585015889       16.37405210119535
O           17.85812489814679       20.45899096181502       17.96526349780329
C           13.29992956220298       13.08962417969937       24.38406125551507
N           23.39768433501595       19.77533047013089       13.01041467947851
O           21.30255011199346       21.48281379006976       21.79072193352121
C           12.74145147791816       13.61070554436997       23.21775333515435
N           26.67862391071979       17.87309886670624        8.60720347235839
O           15.11417139239236       20.80246234934693       21.96791954555052
C           13.59780891417735       14.33347895197435       22.27139949216966
N           16.84141681280382       18.14961806821297       19.18696782306552
C           13.52686542692481       12.56980071294330       20.49104214804432
C           14.70499847689608       11.61925644951230       20.70167824376180
C           14.24859144414259       15.52791670979834       22.49192967278940
C           14.30906592443329       16.29562394926915       23.77445125413438
C           13.36630054165533       17.51560562616818       23.90251297539334
C           13.39394969283995       17.99647248900151       25.35640973138027
C           11.94130259290929       17.13000278180276       23.51263046723690
C           13.82102998157992       18.66252909212866       22.99263113647893
C           15.72651787108543       20.02730433179489       22.66685192159561
C           17.20951505210922       20.14268378576882       22.98458322601619
C           20.12289477714001       21.31302413001129       21.49851973139102
C           19.70096609785535       21.07288478580882       20.04675898362402
C           20.75901137834371       22.54648878259201       18.41566879795947
C           22.10859208724504       22.98217201680217       17.83402858350159
C           22.48386043090295       24.34649152358395       18.45824412869110
C           23.69970878411861       24.94956969292982       17.75958601388504
C           22.76772506365014       24.16482374133400       19.94798073229236
C           23.00305083724554       22.28411020947929       15.73057714986793
C           23.13408005578053       22.38921821031829       14.19946865496983
C           21.97947731618878       21.69147890500484       13.47582309789309
C           22.13637813119935       20.17331148617350       13.58929407719684
C           23.42948806034756       19.14783760524701       11.82084632110428
C           24.72796784214178       18.96420729350528       11.22947850528609
C           25.71906152149822       18.78466831924089       10.56871411675609
C           26.97371208248835       18.60532797368358        9.84454897645833
C           26.00654301812214       16.60578916656792        8.81227251032014
C           27.79532754770001       17.71392741501326        7.70021429788264
C           27.48853324756477       20.01642862541137        9.51303977913605
C           27.96879903502531       17.89749311551206       10.78949753289032
C           24.54391313305058       20.32393160207996       13.68930500179555
C           24.48395076199652       21.85293727558940       13.70696612373833
C           21.05964966939057       23.84339494280663       15.77013796347152
C           19.27748360453689       19.62099635368050       19.80415233099313
C           18.72100173859869       19.41218296300323       18.38370196004143
C           17.97950568393420       18.06613892588514       18.29712858930928
C           15.92565993720339       19.18016147914710       18.72399555755419
C           16.65455231571153       20.52053149979984       18.71236779867641
C           19.43136552256645       21.74528083287100       23.79955381557830
C           18.88500306513450       20.68682652457055       24.75109571624026
C           17.39620337419476       20.48864059084683       24.47404748490514
C           14.91351917006029       15.84449028105004       21.27158606385530
C           14.64392868872173       14.78984144383831       20.36267923273502
C           15.17273194414467       14.79700119240568       19.07605497517143
C           15.92384660558334       15.88389288761408       18.67994108636109
C           16.17027390925993       16.95057908404511       19.55580112249827
C           15.70021607846953       16.91246039796794       20.85307420923703
F           23.13304635992071       23.75295075279572       13.83676954559285
H            8.68938695585831       13.98828538435612       22.68382744077103
H            9.56750669482204       15.51441717886815       22.86958179252925
H            8.85475986474106       15.10143384643118       21.30972409350289
H           11.30863976674940       14.70101296065477       21.27923002604928
H            9.01460710771069       13.54609404699555       19.60950954795879
H           10.71666574403517       13.89810233088395       19.19581281537790
H           10.09398140247322       12.22558789574239       19.09926194520406
H           10.45131229357797       11.86732312344611       25.70233314451649
H           12.89481729990212       12.03656123681293       26.21589691478656
H           14.36373531958386       13.17935760551596       24.54948477313280
H           12.64129044899772       12.19210534474077       21.00598253852611
H           13.29584253393971       12.64857498267354       19.42523598818035
H           14.92968316222593       11.52567162911611       21.76192203651753
H           14.46203721196732       10.63685523851050       20.30834011170932
H           15.58908343205561       11.99597496534874       20.19121624807820
H           14.06392414325077       15.61534897384990       24.59123953705461
H           15.33123247376555       16.64845078592516       23.91586282686850
H           14.40213878375854       18.28792698936132       25.63805999506117
H           12.73629856189944       18.85285230378167       25.48580143724261
H           13.06226336563940       17.20511138444396       26.02141683238581
H           11.26816330252361       17.97487478633003       23.62772795349097
H           11.90632298623761       16.79764036145120       22.47974250210003
H           11.59281590836603       16.31907733893118       24.14619380109601
H           13.21049196700070       19.55859917385571       23.15418008502949
H           13.74083250387210       18.37761513057902       21.93741352493867
H           17.68163102964560       19.17401292300328       22.78304033309733
H           17.27102589848331       21.99025803564095       22.12281850349187
H           18.87696679917799       21.74759973421678       19.79487171516734
H           21.71017437973922       21.06259057023192       19.45349050122114
H           22.87907700629761       22.25333643694226       18.09944683139449
H           21.62658321104209       25.01916595099618       18.35227954366133
H           23.98621953717502       25.87460148107781       18.25296515832675
H           24.53843280019612       24.25717336567203       17.80428009055899
H           23.49203266742520       25.16749564028863       16.71493005644589
H           23.65108328151295       23.55016637049538       20.09544502156402
H           22.94005579163859       25.13217646556113       20.41011379549829
H           21.93349157935648       23.68856089992822       20.45726271256287
H           21.01834768922403       21.99305578476678       13.88849306634843
H           22.01532079205347       21.98236521307904       12.42286925185628
H           21.33743026809618       19.66724458385821       13.04382468771839
H           22.11634795612185       19.86891430041289       14.64078909113306
H           26.67933924856693       15.81106677782194        9.16601079103762
H           25.19611954219510       16.72950720739455        9.52695248917086
H           25.57941767959944       16.28796670032883        7.86132118482941
H           27.41392575574170       17.27410025823562        6.77916067807565
H           28.22640234459012       18.68081136241669        7.45890638121210
H           28.58390265591560       17.05172407206014        8.08963651635396
H           28.52977825138391       19.98599121902086        9.20561683113450
H           26.88642633857580       20.44637932583677        8.71782304550438
H           27.41014547356760       20.64938488149232       10.39375238097624
H           28.12522335077727       18.50423370352227       11.67645003991696
H           27.58250788314415       16.92893385664764       11.09689546387811
H           28.92240177247196       17.76038391785420       10.28729621002226
H           24.54648217850800       19.96022173797975       14.72123864919649
H           25.45339865439992       19.99608391545919       13.18531085068105
H           24.62963302800489       22.24301565260899       12.69843994918027
H           25.27586078820817       22.23327749940807       14.35065138631463
H           20.11294281033809       23.29667033156915       15.75699298947936
H           20.91235852686508       24.73195558472551       16.37865863290953
H           21.31729725354705       24.15592725853907       14.76646714943442
H           20.13154042184206       18.96035072817664       19.94663337481205
H           18.49818165326892       19.35794126108256       20.51582862608831
H           19.53752803393226       19.44109641351413       17.65382635830517
H           18.62807453843640       17.25187106798073       18.61736832263725
H           17.68513579637391       17.90534912168610       17.24606438623284
H           15.55250992967314       18.95088617309652       17.70831200661922
H           15.07583690933949       19.24329673619269       19.40487338662591
H           16.85071350131046       20.82670687825511       19.74622134741645
H           16.04966158319926       21.28453328731213       18.22165259993625
H           20.51095678257297       21.85576440493988       23.88863211645842
H           18.95134375902990       22.71020097062464       23.99457264780305
H           19.03945917281941       21.01066943893621       25.78002179602249
H           19.41964123159648       19.74828834005946       24.59813893078376
H           16.84958058421539       21.40650427486381       24.70334280897383
H           16.99177602310833       19.68203813681403       25.08344631318664
H           14.98684516557104       13.98557023534721       18.38843891077948
H           16.32091385222049       15.91845151117183       17.67648016443533
H           15.94912118927732       17.72293846625450       21.51393332980085
