151
 energy: -221.326142670117 gnorm: 0.007234682891 xtb: 6.7.1 (edcfbbe)
C            9.73386335901181       14.75955611273987       22.00248204373355
N           11.15074142605939       12.47195936872935       22.78849094568545
O           10.69247539709987       13.64652159097509       20.03591480069475
C           10.99451010962809       14.33046858273635       21.25300003165236
N           14.14457029690157       14.35022422194607       19.98991268145231
O           15.60947717857443       18.81580460025231       23.31231930245012
C           10.28393589914398       14.49016232477288       18.98295990517117
N           17.94190580615777       21.41861624722256       22.56447357395787
O           25.02048069951910       16.83691897152453       14.15800149575374
C           11.82269906114086       13.37580938970293       22.09045166880121
N           19.23763414917935       21.75974126184341       22.96524932302219
O           23.07096103665791       20.78771203396941       17.80734348631036
C           11.81277783295655       11.60612943943948       23.53453493483521
N           20.98237807690507       22.19422147542527       19.77994351123585
O           20.00654221556693       24.03878683348958       18.91154369601817
C           13.19513776323368       11.59615584203716       23.64124824617064
N           21.71742170073798       22.30983420888203       16.86783386392666
O           18.10988838568456       21.42333799933728       18.39973081474320
C           13.90585481279194       12.53649749218379       22.91720947754925
N           24.38089567946966       18.94116065173451       14.71411578406165
O           21.38149679186433       22.16512516882613       22.42583484452228
C           13.22281916600577       13.44731693425790       22.11304339139450
N           25.19944695750681       17.58901716448234        9.14738972449703
O           15.25132123244746       20.84923818234265       22.43966792479441
C           13.99531388709084       14.44081225126313       21.35613280353940
N           17.12542628728727       18.91865910813928       19.18759739211000
C           13.70172957932352       13.26095437558632       19.15524996021117
C           14.76050089860571       12.16416591140100       19.04948354496386
C           14.68932632752112       15.52546709823182       21.84394321965713
C           14.84234397558122       15.94184585364925       23.27388353809129
C           13.94169875596260       17.10003075663724       23.76223653562489
C           14.16942224069161       17.29340130907006       25.26379791850946
C           12.47118653365830       16.76905140261803       23.50923160342902
C           14.25931521284104       18.41322852315113       23.03657863137008
C           15.97910293050251       20.03182026128214       22.95743085422307
C           17.42799127011303       20.29023755117299       23.33629283266614
C           20.23744278085075       21.89908026199618       22.07653369932833
C           19.86592386064928       21.77485952585943       20.59850197275748
C           20.92609405426884       23.23241074635497       18.93765588318615
C           22.08812608239296       23.25170182098935       17.93257512384384
C           22.41924193590418       24.65591182285847       17.41640497265434
C           23.54349731895745       24.59236750263643       16.38365160642666
C           22.84738512618203       25.52121399776008       18.60136567540022
C           22.27140786350319       21.09205508168996       16.92044343556696
C           21.95886990092126       20.04275568155324       15.83227723677463
C           22.50078925430972       18.66722712454007       16.23694388107309
C           24.01579948122170       18.57492591614870       16.06133633882276
C           24.81594291591692       18.01151346375897       13.84757613260264
C           25.07157372400432       18.43968502708566       12.49721702211465
C           25.33713417322531       18.51410848116725       11.32444996468513
C           25.72632234349239       18.71450003232287        9.93122157130480
C           25.55827475994016       16.28097926614347        9.66064793586822
C           25.45998136869441       17.65419621181421        7.72394350065957
C           25.09205732171418       20.02992443835107        9.45203040839519
C           27.26520028649658       18.84124179111801        9.91689761921915
C           23.99907721917519       20.28508725209527       14.35824382808985
C           22.47734009292618       20.43910064494187       14.44482699649457
C           20.65015979617339       22.75327074553379       15.99221891590841
C           19.44620263657324       20.36174939705709       20.17740361274686
C           18.98545127213066       20.35117508289193       18.70832552111370
C           18.30791928121695       19.01815542487668       18.36168555003863
C           16.18830231989650       19.98017445221994       18.85400393109571
C           16.86369380270488       21.33282685592089       19.07131748869016
C           19.44186877104700       22.03158386630712       24.38173938424843
C           18.95521339077795       20.85240450286128       25.22014275923042
C           17.50709429287699       20.53590555479811       24.85490942900148
C           15.30205805989531       16.14053588352639       20.71349687615616
C           14.95209291494507       15.37073146757422       19.57718306856717
C           15.41092391103680       15.70819950455162       18.30689932133416
C           16.15956102606960       16.85672229750300       18.16762346837549
C           16.47737147031655       17.65083430007867       19.27965460993837
C           16.09451427501562       17.27279648531902       20.54797858770587
F           20.56072060347850       19.88315794500058       15.73728488811756
H            9.16784148662401       15.48000001832271       21.41892419560526
H            9.12205514708838       13.88368414048778       22.19339622416638
H           10.00974019087677       15.21505792776099       22.94808365216416
H           11.60877699577353       15.21131749745289       21.00860159789261
H           11.05367330428359       15.24143987949478       18.76665065003876
H           10.14723668228251       13.84417649022927       18.11875634952257
H            9.34251972567077       14.99844246925506       19.20831882037755
H           11.19959915235798       10.89578279091464       24.07232818303135
H           13.69551237770722       10.87586939874981       24.26752084628232
H           14.98524558387325       12.56916569486978       22.95929713175899
H           12.77655986471833       12.85333801770529       19.56498801251819
H           13.48657511747538       13.66520250936413       18.16245530070748
H           14.96053383155690       11.73307521766952       20.02785837810707
H           14.40786051460962       11.37831499252339       18.38761256257676
H           15.68888279802163       12.56923888209194       18.65216083900519
H           14.62673189902301       15.07881759518233       23.90652365713351
H           15.88127882762977       16.23390159567776       23.43536495376527
H           13.57189032488936       18.12392881748800       25.63187802652298
H           13.88235424064070       16.39681205299911       25.80624539448529
H           15.21614754618847       17.50294796736961       25.46550334364981
H           12.24147874317816       15.78409183142381       23.90757069564483
H           11.82461892086331       17.49897864485987       23.98866199538012
H           12.25863869247812       16.76899538380975       22.44395107759839
H           13.58588218977899       19.21045378242551       23.36712878680802
H           14.14716119167255       18.29827437596551       21.95444859521240
H           18.02454327022554       19.40790396807843       23.08272386699236
H           17.30781876243303       22.21268065180614       22.66759845026001
H           19.05641553765220       22.48342889256274       20.39124362234450
H           21.79751448875442       21.59670085011218       19.77749569308019
H           22.97901433296610       22.83682721798419       18.41421222967292
H           21.52227813751571       25.09758356572135       16.97580586386267
H           23.26958804310397       23.98069331153599       15.52895365167546
H           23.77887180469620       25.59295058547010       16.03151729510159
H           24.43746070731915       24.16727174120868       16.83509357738043
H           23.72555592155258       25.09929308833502       19.08264686092961
H           23.08493444557568       26.52553723013183       18.26255738403428
H           22.04715319831659       25.58530663856973       19.33416980895718
H           22.24262865721085       18.46822262409784       17.27706352079780
H           22.01064789687350       17.92346425563784       15.60521126290430
H           24.35264514348777       17.55265516805563       16.24263149199793
H           24.50801145614745       19.25281085550909       16.76466121819814
H           26.59978036109916       16.00299591062952        9.44706802920885
H           25.40296903712356       16.24601707018872       10.73569068674831
H           24.90839853765470       15.54196938180820        9.19492215676521
H           25.10763869191583       18.59643132764205        7.31678224043177
H           26.52252946912952       17.52341982272181        7.46994166931750
H           24.90065026013085       16.84897252462788        7.24820584108339
H           24.02233226830885       19.89119109490802        9.31930589947341
H           25.25981921181384       20.80668491865190       10.19322667975112
H           25.53534765375412       20.35143285566138        8.51399875931345
H           27.61521655140738       19.01665078710821        8.90308700556048
H           27.56844095871243       19.67633567328643       10.54212386386141
H           27.72779899549138       17.93646162219241       10.30447617174976
H           24.48197304549379       20.97463098320327       15.05862707184869
H           24.33830835101984       20.49981135370269       13.34461015874455
H           22.00557183458719       19.77134677947819       13.72123971955412
H           22.19590002135975       21.46240454171736       14.20582628568815
H           19.89016575867661       23.24774860421267       16.59895705176875
H           21.03128558840239       23.46297031757162       15.25784789017045
H           20.17579600979582       21.92429266066409       15.48260284938398
H           20.29398990470192       19.68355183184963       20.28175758788600
H           18.62668229801060       20.01337910322291       20.80003096625463
H           19.84179821038054       20.50764247654964       18.04643684629505
H           18.97234976514730       18.18353386876763       18.57687524351824
H           18.08225924500615       19.02563482089303       17.28174141550570
H           15.84147033596521       19.89653229542686       17.80588160876961
H           15.32240684067963       19.90776294262818       19.51572035663176
H           16.98955219045052       21.49606997883968       20.14797765382599
H           16.25779302468369       22.13765773217995       18.65392370896531
H           20.50744222169305       22.21249485121961       24.52286918526454
H           18.88473717157231       22.93837258000930       24.64476108610344
H           19.03591302398608       21.10180620477547       26.27679453754554
H           19.58265271279962       19.98341062717583       25.01870789204330
H           16.86113368279049       21.37811286501437       25.11468038583066
H           17.15698921705710       19.65282597411665       25.38769185721858
H           15.17744845193732       15.10273846858763       17.44417995229794
H           16.50129804388465       17.15598612003695       17.18735941711552
H           16.40720427795667       17.87115205155609       21.38522867602678
