151
 energy: -221.319153885974 gnorm: 0.008431570179 xtb: 6.7.1 (edcfbbe)
C            9.20158558460736       15.61982896557673       24.05697128035742
N           10.36220051562330       13.03806483223939       24.37435404971024
O            9.07538032811665       14.23595518554542       22.03450724636634
C            9.95576511317839       14.92069509278787       22.92663724314215
N           12.46866311445960       14.72017247267116       20.78573147977050
O           15.93440636149663       18.38131644307681       23.53115109874841
C            8.38691033671643       15.06899116153672       21.12893632237939
N           18.50101055950178       20.39859291572296       22.11210918881245
O           25.54950710288125       16.72004777184055       12.86346918618198
C           10.89156297237385       13.86471091172229       23.48448994488133
N           19.89624331925710       20.35862661209883       22.02662943025467
O           23.55624423368580       20.89149631033694       16.21160496831581
C           11.11046774049025       12.08421114885363       24.89890550625829
N           20.44996689851007       20.92202383854925       18.48943394800484
O           19.83535533885336       23.09244733362624       18.59901657184344
C           12.44583162399509       11.90251394013175       24.57459291098895
N           21.40298133986966       21.45221791041567       15.92485155286320
O           17.37485130602037       20.77029592943968       17.89973609759127
C           13.00825874749082       12.76185121828799       23.64858676221082
N           25.10794774453637       18.70049851277943       13.88546698778146
O           21.73389087692703       20.25144348655659       20.73267930376982
C           12.22855527847646       13.76528119053279       23.07423481451644
N           29.09472621804354       19.54992005497647        9.85003877882857
O           15.90759698726478       20.55656023545668       22.98966322951216
C           12.84830363447306       14.68092067232273       22.11038773658072
N           15.95685197815451       18.64339049416296       19.04901173839357
C           11.62823007728062       13.75051428645559       20.12758983395388
C           12.44640104419811       12.56602022483804       19.61671055337925
C           13.86065021702801       15.58247252719703       22.34809198241395
C           14.56813139399796       15.82239906663074       23.64366861117915
C           14.11833489378748       17.06271181374707       24.45013733316445
C           14.79919836886353       17.01857784250776       25.82135455460088
C           12.60135919204250       17.06286459501788       24.62819429404843
C           14.51403645072776       18.36032056860263       23.73620344963929
C           16.49397283877910       19.50929885028550       23.14466034264689
C           17.99384591542570       19.33368661058785       22.96833404269522
C           20.51446271602482       20.34432413760464       20.83629894087685
C           19.62245132031087       20.52362942798693       19.60565136722232
C           20.51902480331475       22.20737848117773       18.09940750252145
C           21.52302682505477       22.46077556843746       16.97252175878252
C           21.40570406349625       23.88794129780600       16.39335044912428
C           22.19167866210885       24.01646239040920       15.08869426826815
C           21.93636454448605       24.90143075688965       17.40619150524953
C           22.53762907060153       20.85943846641666       15.51921707999868
C           22.63360828342378       20.15701471710490       14.15622532369336
C           22.70445598798832       18.62791949029805       14.27603325415933
C           24.08360081539045       18.15660506123861       14.74769313085022
C           25.68955247907865       17.94198377804177       12.93408624056756
C           26.50513495057574       18.68239779685155       12.00574191303011
C           27.13727268996727       19.29518290166605       11.18429396523925
C           27.83059353617080       20.17618619081633       10.24923288383523
C           29.91918998759972       19.11900058948281       10.96015014551881
C           29.87871011972283       20.31210509897319        8.90022295765598
C           26.90207047614267       20.32039377134110        9.02969651312004
C           27.98117649554177       21.54648356039479       10.94751336499034
C           25.16272335272204       20.14242015003934       13.91592743388981
C           23.84698892100204       20.71100309412484       13.38888709836900
C           20.08593545646757       21.30347937537997       15.33931506639522
C           18.79867934798384       19.27886105213062       19.26908528913360
C           17.95038692931683       19.47628624097429       17.99670499024613
C           16.84436793574662       18.41211506286030       17.92965666384196
C           15.30945562892954       19.93775735498036       18.90996264755668
C           16.38693129585119       21.01868752428525       18.88591741197570
C           20.63954838204537       20.37624595971860       23.27799927633447
C           20.17547831393976       19.23546561586521       24.17946251553050
C           18.66056470906777       19.31501434333001       24.35821257248794
C           14.13290804090535       16.20978337510143       21.09681679791250
C           13.24954693107982       15.64035884790456       20.14544230685008
C           13.26376725171441       16.04893342915157       18.81481692691937
C           14.15457825896021       17.03242093489963       18.44377963418405
C           15.04352019234457       17.59471152172461       19.37168390965829
C           15.04741286095989       17.17467919829741       20.68432434203230
F           21.52489931599300       20.45718597240598       13.34764238598327
H            8.61237980053972       14.88338086122611       24.59529306460462
H            9.91025015085964       16.08252711288361       24.73606991323203
H            8.54569708606439       16.39128386942768       23.66082110344423
H           10.53889834860013       15.65792445300936       22.35310391586407
H            7.78380886246914       15.82353671629265       21.64073081333536
H            9.08709570651414       15.57047536965894       20.44908366469915
H            7.73227784821126       14.41007359588842       20.56279951967057
H           10.61038011442955       11.44361450779534       25.61289042801709
H           13.02282791130237       11.11408489066722       25.02982265917625
H           14.04209911714421       12.65729369746647       23.35313958099117
H           10.86857470056804       13.40163571459863       20.83058345766053
H           11.12504982466379       14.24338745119443       19.29198425584099
H           12.90817771954694       12.04010207114504       20.44822074664587
H           11.80263422647791       11.87480760693063       19.08147278573001
H           13.22915959917332       12.91036109508710       18.94519949259482
H           14.42011032564347       14.95151714786449       24.28421389954357
H           15.63609039548162       15.92353387758814       23.44201227877244
H           14.44943153881486       16.15936835979473       26.38739942091047
H           15.87632557304441       16.94340275812576       25.70567441796336
H           14.57226599608641       17.91799571337013       26.38832620796931
H           12.28937362691707       17.89455526637643       25.25493747557829
H           12.10411006688516       17.14914713192744       23.66573840228540
H           12.28722916675436       16.13430358337737       25.09810732512459
H           14.23267282252621       19.23713973419388       24.32754031648436
H           14.02339232359819       18.43364187730662       22.76148068290060
H           18.18229379077669       18.37734670511294       22.46846874938381
H           18.18113472184807       21.30105187955700       22.46923498732449
H           18.95874219007804       21.37250500708245       19.79708119719470
H           21.14441836026656       20.25791384384484       18.16930988422533
H           22.52646471524186       22.34211300708212       17.40489250490084
H           20.34709718967493       24.09556627522064       16.21027725013073
H           22.17817668053974       25.05253358378159       14.75529973819747
H           23.22791295397384       23.71825415203705       15.25095877182085
H           21.77038452840842       23.40115335233457       14.29616098476397
H           22.99954855450248       24.74233949509576       17.57470831379209
H           21.79128897814978       25.91075385409685       17.03121055223777
H           21.41097841440619       24.80499245993728       18.35085575322568
H           21.93418873449882       18.26567431609648       14.95759070291690
H           22.50669036048949       18.21849676827520       13.28166134888840
H           24.14128792788271       17.06719107521375       14.70316807278260
H           24.27087549146976       18.49934032721993       15.76928244199883
H           29.31976264704632       18.53732377613539       11.65799618788757
H           30.71186803723847       18.48159549458783       10.56957761965966
H           30.38865702823343       19.95389743180891       11.50385859084778
H           30.68203342702303       19.67024621059663        8.53991280795353
H           29.26595158828772       20.59754353996198        8.05068656872738
H           30.33405033539496       21.21287999332621        9.33842250720881
H           26.93954265890447       19.41370086824394        8.43307044993288
H           25.88070711392783       20.47602402134455        9.36795514129187
H           27.19294356402040       21.17044940273880        8.42017708643757
H           27.00110055340910       21.91974560401044       11.23253649252265
H           28.59101986751918       21.45728910277727       11.84347016658714
H           28.44203124599305       22.26193882697211       10.27155791456018
H           25.30712127157573       20.45754733522831       14.95179204163080
H           25.99453612454594       20.49349966867453       13.30850436191436
H           23.71953327913933       20.42553801219668       12.34211692798383
H           23.85433909060086       21.79920973202363       13.45415455486313
H           19.94234314965489       21.96334834387488       14.48287023477342
H           19.92734644700432       20.27768713362617       15.01805070733995
H           19.34357125101361       21.55219462243112       16.09661087744938
H           19.46077729044300       18.42687249356608       19.11571508748987
H           18.12758306540617       19.06811820020107       20.09935338491661
H           18.58613707946829       19.40569990228998       17.10930832941706
H           17.27236243779671       17.41350795738788       18.01399902107781
H           16.33181586892494       18.50447372885216       16.95679398801504
H           14.70168551929320       19.99124783958091       17.98999877735773
H           14.65986117847351       20.10374924761096       19.77066282106873
H           16.84019432543133       21.08128402787465       19.88157396558893
H           15.95959583253933       21.98908051318591       18.62628858050708
H           21.69586180551721       20.28846283265616       23.02454131904210
H           20.46544819741825       21.34101715357412       23.76862854402962
H           20.67534871550387       19.31264256985414       25.14427966287861
H           20.44470354625945       18.28077508011245       23.72388994422011
H           18.39423364307140       20.22826991734425       24.89703094381595
H           18.29323657927236       18.45942607592700       24.92318943012472
H           12.59222687048675       15.61635038195237       18.08531603440057
H           14.17125028010889       17.37688038187303       17.42024328337896
H           15.76492704033951       17.60129344730529       21.36319335044052
