151
 energy: -221.325966720551 gnorm: 0.009240001944 xtb: 6.7.1 (edcfbbe)
C           10.03351380584220       14.67704893940666       20.90411268983632
N           11.04578353844097       12.87434957722051       22.80308569334181
O           11.41167827050410       12.96092191049825       19.81497787317924
C           11.41823363549780       14.05519431683905       20.72993268667122
N           14.71577071380572       13.87505045973529       20.41472683617440
O           15.47546793481803       19.16098225909504       22.52536639309598
C           11.33251593632231       13.33253088398106       18.45555938346363
N           18.00867026087807       21.51665340062158       21.66074422516449
O           20.41637972393534       18.28213239581585       13.99852921217850
C           11.93241644957435       13.50417967582255       22.04772908573105
N           19.20073772657424       21.96088464857074       22.24853101116159
O           24.05695514150042       21.53909280645115       16.60841760947695
C           11.42585963736131       12.36779986104671       23.96291632542534
N           21.60807429240668       21.60703668736338       19.56369911688251
O           21.26115431870587       23.82639988788415       19.68906114565338
C           12.72090500996781       12.46740707428817       24.44646819657800
N           23.00756511584577       23.40445180686011       17.30170826990361
O           19.17420638811796       20.34377222826953       17.77757083486656
C           13.65474380239945       13.12199337223317       23.66428437606950
N           22.02656523664664       19.86628633741458       14.25562629860221
O           21.44505490609391       22.07725962276965       22.18566764683665
C           13.27400558553273       13.64916835560503       22.43181798538133
N           24.23974945139478       18.16386639414179        9.83944467783438
O           15.36229459635251       20.91148568053927       21.12788466781480
C           14.26125279391412       14.36705405276905       21.61736534759261
N           17.90420818629827       18.13521153435044       18.94550353972845
C           14.49233827276627       12.54305116672194       19.91138601261609
C           15.58819376831277       11.58242788389999       20.37052401450442
C           14.84416147249688       15.58349981520267       21.89281126036821
C           14.69420439974136       16.40015109739950       23.13713856724114
C           13.71204382379228       17.59273893326727       23.08337346084441
C           13.62014514834946       18.20126349406636       24.48611213958926
C           12.32824435716427       17.12857924824001       22.63320012140503
C           14.19778183071805       18.66401687661086       22.10030278019460
C           15.94536224831519       20.25891306089929       21.96591276608821
C           17.29158945488568       20.62585440409136       22.56568375808587
C           20.38345617882276       21.79520670338995       21.63954467587326
C           20.33810345638262       21.30360455627739       20.18747709898865
C           21.98448131781938       22.88087100818137       19.39614114601829
C           23.33203758941652       23.06234685026982       18.68592980766639
C           24.23004790796775       24.06693323422677       19.41679511501674
C           25.49528456473948       24.34268289370302       18.60983694792704
C           24.57773291990587       23.47351043599762       20.78218077921761
C           23.33213295350259       22.50722018503804       16.35990500096256
C           22.67233791807861       22.59608880185937       14.97626424417588
C           21.25309202107421       22.02386578798956       15.09918620929140
C           21.32935032530392       20.51854088509753       15.33715815494179
C           21.50543798270048       18.76861396322949       13.67739082346285
C           22.29327342456528       18.20304250405611       12.61462189243553
C           22.83214464086256       17.67985425544591       11.67407384594033
C           23.54418149029130       17.08057964199859       10.54943543689516
C           23.38153064934051       19.26016143277496        9.43730306525814
C           25.05952310213102       17.73282169495671        8.72539579261828
C           24.57024171841010       16.09914297807092       11.14475486138378
C           22.51302919971406       16.30649828891170        9.70326288333678
C           23.38355059250139       20.32451267803833       14.05518772314711
C           23.43602178512620       21.84281260027186       13.88311006586466
C           22.31708964841784       24.65655502222674       17.06887240417145
C           20.00713139294852       19.82142207726411       20.04216211967756
C           19.89901588702826       19.40753405702062       18.56159225217336
C           19.25715896890425       18.01665377282076       18.44532314788601
C           17.13905702679419       19.02118522024967       18.08407738223052
C           17.79223815664877       20.40048910599075       18.09743588432077
C           19.08673019445933       22.61889753931711       23.54009639758663
C           18.39440083049137       21.69443876562421       24.53644960254791
C           17.05395343351177       21.24962731064319       23.95635853833971
C           15.70161204123850       15.86548906766279       20.78771502859222
C           15.60502972726007       14.77187890959967       19.89464290017352
C           16.32444266291773       14.74770036478949       18.70250877263017
C           17.10526924195798       15.83929299627226       18.38996170854297
C           17.19854526486472       16.93680358402909       19.25949394581419
C           16.53087667844365       16.93605827824308       20.46522237414581
F           22.59259607114628       23.92515413764162       14.53314063422547
H           10.07363804220219       15.44022436491926       21.67489238515622
H            9.69876636050678       15.13307777989846       19.97718240031011
H            9.33422386628981       13.90320899599370       21.20411931525207
H           12.12699959339721       14.81404518777485       20.35828779213988
H           12.13211964136647       14.03987076750827       18.19766087424107
H           11.45913807702274       12.41207898877249       17.89025515517972
H           10.36398212883510       13.77829869559295       18.21088332598336
H           10.65149471020870       11.86529271602939       24.52405315666223
H           12.98615501500587       12.04566714894694       25.40215687311630
H           14.68006425447432       13.22033628416722       23.98966001877620
H           13.51746246252858       12.19587571189853       20.25830465627809
H           14.47152346677460       12.58810532754518       18.81935824421218
H           15.59808015189426       11.50991844525845       21.45589914821688
H           15.40836958657257       10.59488356937423       19.95621667979483
H           16.56238281605360       11.93310392663050       20.03625942695784
H           14.35671301500401       15.74416398296241       23.94140283850989
H           15.67760045790323       16.79177816031830       23.40427759650790
H           13.18010341350466       17.48694552691673       25.17655713759755
H           14.60825633447691       18.46919843866081       24.84750397071738
H           13.00045004489504       19.09415569657072       24.47446692886341
H           11.61780984868827       17.95044949496362       22.67046352477937
H           12.36639154463981       16.75081833316565       21.61577658209565
H           11.97369453881188       16.33322247433489       23.28319491612535
H           13.49404049957144       19.50217324191562       22.04990918611931
H           14.30599488029150       18.24577451023448       21.09379049487356
H           17.88527429496338       19.71350106238395       22.68167348641633
H           17.40844300654728       22.30811426295010       21.42183278190877
H           19.57908010092505       21.90508750904669       19.67458222937619
H           22.28867234975037       20.86866138585414       19.49059383995318
H           23.85793659296144       22.10395012757110       18.63855173826270
H           23.67622084311417       24.99752374919818       19.57182990311158
H           26.19155298825741       24.93234984111924       19.20031825383131
H           25.97670616672857       23.40463852043312       18.33800876100942
H           25.27061053530252       24.88809632344207       17.69591618224559
H           25.16555961109116       22.56517498239620       20.66035022874705
H           25.15811482771622       24.18357000821834       21.36639725668226
H           23.67364656604009       23.22795166094940       21.33904721672513
H           20.71060495501403       22.47840686789843       15.92797345551918
H           20.71588999011792       22.23391149870882       14.17200127725594
H           20.32737239039584       20.09371770561803       15.41390381684116
H           21.86245898165403       20.32745701804181       16.27502480201638
H           24.01382026613003       20.09168628040429        9.12896605096096
H           22.71662392114117       19.00540560622281        8.59875250063267
H           22.77223083473906       19.57998990643069       10.27988691997247
H           24.47124763892347       17.37358250894205        7.86862904162958
H           25.64559052665237       18.58899813419333        8.39375661543190
H           25.74622066143541       16.95377321415451        9.03989630434958
H           24.10848551968994       15.53380868867024       11.95013848206492
H           24.91374251384794       15.39796218170729       10.39029185560263
H           25.41632095597562       16.65038860105420       11.54246531950979
H           21.74197751152696       16.97712042731264        9.32888381108611
H           23.00151290799470       15.81689442794218        8.86545918157224
H           22.03553415303578       15.55052473299214       10.32195780553765
H           23.98049058208429       20.05172327893382       14.93200885993363
H           23.80107854946498       19.84167158672178       13.17042811537228
H           22.98474832267748       22.12929140656221       12.93143067145925
H           24.47758672206063       22.16254388617052       13.88529737862802
H           21.41463006642751       24.51631537712358       16.47725097874583
H           22.02411586110082       25.06994416657011       18.03009623053822
H           22.96950680381734       25.36110912328479       16.55280883033768
H           20.77838790671198       19.21828873513055       20.52047630769707
H           19.05091382538722       19.62238503565800       20.52110032980446
H           20.89045766879413       19.39294698801914       18.09855246538332
H           19.80304049071305       17.29466063978520       19.05143831032862
H           19.29781065806456       17.70168644897820       17.38740385103828
H           17.09704508718353       18.63562164643777       17.05015369508018
H           16.12214901504922       19.10519725202153       18.47129231590032
H           17.64125356707573       20.85788842104263       19.08096815258997
H           17.34784495255617       21.03849566480299       17.33161824541475
H           20.09494568768485       22.87985185770893       23.85813468572213
H           18.50301818967601       23.53630327850628       23.40479458410930
H           18.24644675230152       22.22041532541991       25.47795054271992
H           19.02495607012549       20.82308079437212       24.71871384808831
H           16.38687951714208       22.10909767869968       23.85465913292071
H           16.57728095132541       20.51465351359437       24.60324216085738
H           16.26420821833904       13.90984971408723       18.02516762270183
H           17.64324220449435       15.85917432243549       17.45133421902108
H           16.65121976614691       17.77624311462478       21.12699504579398
