151
 energy: -221.320397987633 gnorm: 0.004385753701 xtb: 6.7.1 (edcfbbe)
C            9.26501029392756       14.27995866617811       23.33237417562828
N           11.26630175724794       12.36398766923527       23.60052984226932
O            9.97450890151427       13.55928945096415       21.09296525625737
C           10.38582798032563       14.20328193308698       22.29819382852657
N           13.06410405295065       14.87699344888171       20.27683361322981
O           15.47133368821182       18.87134547204852       23.68460595994694
C            9.13985191332732       14.33682864441050       20.26349376412232
N           18.23232960397721       20.84176053406693       22.50274671567768
O           26.89248923160365       17.26927182087529       13.89749344621475
C           11.55792916349663       13.39524421622547       22.82155176407502
N           19.62264459966295       20.67006848697643       22.50523285427078
O           23.98105081231336       20.61717578832682       17.42342942262940
C           12.24518035959860       11.61721682892887       24.08037824650378
N           20.65547130353915       21.30173713027656       19.08318911112709
O           20.22638911647809       23.49967234085699       18.80687086291501
C           13.58403928608911       11.86243046746936       23.81936983864442
N           22.02413505038234       21.43350493180280       16.68609560848223
O           17.30678591664165       21.79442775456388       18.53604409711771
C           13.89731855504983       12.93665734754634       23.00700336467762
N           25.45827591089727       18.95848758052295       14.37725814451252
O           21.53639402678473       20.38375808534976       21.36705493697962
C           12.87520675476389       13.72489072617594       22.47994727484271
N           27.81411136422035       19.01442306041928        9.14075009620907
O           15.51608412466450       21.00775943355357       23.00076084863121
C           13.24440109935428       14.87134755272735       21.64005743093391
N           15.84895020941445       19.48383568419690       19.10004984811321
C           12.63441807042072       13.75994376183192       19.47394685410413
C           13.82464987786190       12.92340728252853       19.00669405214083
C           13.89896712165495       16.01203839198036       22.04792070665138
C           14.32034481586415       16.31247332129902       23.45140533524975
C           13.57340701960608       17.45059247977057       24.18761397651521
C           13.87893052093649       17.33054969575996       25.68378001669130
C           12.06674159207145       17.34337162564286       23.95769939841209
C           14.03772603751859       18.83180906932441       23.70128092508205
C           16.07752700969207       19.97065882626404       23.27382959229404
C           17.58025672454319       19.74437875197259       23.21298329937049
C           20.33697713516299       20.64960009352534       21.36964450591725
C           19.62929700433418       21.05012509511301       20.07297871825918
C           20.91116983842041       22.51597144727200       18.57470000932268
C           22.13343168830889       22.53243509971481       17.64204086107112
C           22.33921767215187       23.90008161847273       16.96610597952955
C           23.38697834833355       23.81078834602161       15.85831039145307
C           22.79268607915675       24.91486660417054       18.01459828096108
C           23.00723480136953       20.52237677035873       16.67702798108536
C           22.92774869980044       19.31444435643178       15.71983699669296
C           23.92462801600890       18.22334687448573       16.12687789967796
C           25.36173723448283       18.60153583793135       15.77257842528987
C           26.20870494301729       18.22845263449729       13.53415178408967
C           26.20885317210299       18.64444130515574       12.15510339445370
C           26.34149053840726       18.83074119697241       10.97220234421464
C           26.40563205564563       19.11442712052076        9.54005841644281
C           28.69446848050261       19.91588958829682        9.85553285611160
C           28.06609823710657       19.07410091087718        7.71667361659913
C           25.57549705160753       18.01597218926162        8.85445077335684
C           25.75859047583029       20.49138485340945        9.28097888807574
C           24.60340394733934       20.05348762259910       13.99174256012309
C           23.13747871111318       19.69566893143022       14.25099846362825
C           20.86289280896188       21.49416001906068       15.82159099653065
C           18.65256051133775       19.99071545246808       19.55616563695989
C           17.86511121160212       20.50570156062138       18.33735497204294
C           16.75166758540615       19.51190982950983       17.97588687948365
C           15.21369535020181       20.77139101140746       19.29248927616210
C           16.29794420033326       21.82346192451723       19.53275286762189
C           20.26583947953692       20.49591349691965       23.80139996737422
C           19.63669009273905       19.32487914127416       24.54937096556020
C           18.12882818534036       19.54607193108784       24.63741168805981
C           14.17024587240875       16.75580178889815       20.86167126402783
C           13.64503310313748       16.00928813225558       19.77676836115283
C           13.79724913985389       16.43574031280074       18.46184885752622
C           14.49800956548732       17.59843434611267       18.22763033490874
C           15.04943499788653       18.33522938243463       19.28666950863064
C           14.88276998294993       17.91939161183991       20.59267371880826
F           21.64845459713198       18.73326292013563       15.84703410016790
H            8.91389779606527       13.27631955080085       23.55023802576697
H            9.64426453243579       14.72838622770834       24.24565837479279
H            8.44184034324010       14.88317874590076       22.96096019663961
H           10.73851744395177       15.21810011385013       22.04874683402494
H            9.04622638334290       13.78175034023167       19.33264541051226
H            8.14848543903646       14.47686981827727       20.70188207538238
H            9.59085410937281       15.31602305508676       20.06649529693825
H           11.93370457276332       10.79203692389764       24.70586700248485
H           14.35293835109852       11.23384986911072       24.23832826374309
H           14.92522329146359       13.17092587993777       22.77150935068299
H           11.94986540435487       13.14724979518255       20.06347925475461
H           12.08915929295597       14.15049426784371       18.61119843005191
H           14.33418567016548       12.48328552183834       19.86044931202417
H           13.48265447338055       12.12564588657760       18.35489226854519
H           14.53279402726687       13.54472327824518       18.46323481480854
H           14.17826829023176       15.40264351083657       24.03767778336579
H           15.38497153678734       16.55396666310798       23.45554740047742
H           14.94899763441002       17.40713137532068       25.85725389382154
H           13.37953915186753       18.12065751751283       26.23935301070535
H           13.53248393730938       16.37363464909985       26.06492299004656
H           11.54037579317431       18.12164211216856       24.50414038951844
H           11.83409482674321       17.44494361763403       22.90056809383881
H           11.70924048682316       16.37501221404554       24.29826154329671
H           13.66891129359176       19.62382948414492       24.36053724941605
H           13.67048265327923       19.03320745003691       22.69047167164669
H           17.75811309051272       18.82884466893534       22.63540846949721
H           17.97933834973287       21.73081494700480       22.93662232369192
H           19.09871827233188       21.99511340202516       20.22852460803227
H           21.34681358092599       20.56847134346381       18.99059011386478
H           23.01381885530574       22.31574945573086       18.26060121481961
H           21.38144696774733       24.23219954063353       16.55534034144894
H           24.31802461429394       23.41787076880222       16.26161824479207
H           23.06719591810763       23.16703780178572       15.04416296524732
H           23.57591489113973       24.80105730539794       15.45425545985686
H           23.77242395194640       24.64327800775999       18.40478892280279
H           22.85639638875435       25.90599896456480       17.57284650192781
H           22.08527686068479       24.95275490459359       18.83871048881934
H           23.85373793717848       18.04638158059397       17.19994530669591
H           23.64142761890995       17.30955294952674       15.60063327430241
H           26.02870511802448       17.75656655524212       15.95284642556232
H           25.67640211635792       19.44995258621518       16.38661495145818
H           28.62834988809390       20.95687497886883        9.50391734419938
H           28.46513158163920       19.88533804777926       10.91909915815624
H           29.72051131282191       19.57550243619006        9.71601492216216
H           29.12599425979461       18.87701602653317        7.56002621005968
H           27.50072561408752       18.30321081534570        7.20191370128472
H           27.83384273336591       20.05362690119818        7.27220885803410
H           26.11183252461510       17.07220998558315        8.89710852266891
H           24.62743943144555       17.90166687578526        9.37377834607701
H           25.37210875196845       18.27547698836101        7.81962457053552
H           26.27430157989641       21.27038213741864        9.83672119025974
H           25.79672910449225       20.72538062540565        8.22039129904126
H           24.71918259629899       20.46964039871824        9.59562318810824
H           24.87813958098150       20.93171668595514       14.58614821306623
H           24.75495924017514       20.27160953684842       12.93406492920901
H           22.85874999056511       18.83107729151518       13.64471556581652
H           22.50261137366556       20.53354728612763       13.97092816916565
H           21.03109057774189       22.19817437719572       15.00537913934486
H           20.60834302466389       20.52201912142905       15.41667888469320
H           20.01733902109245       21.85645080382069       16.40633037468479
H           19.20263652463000       19.09732559358887       19.26049611560089
H           17.94463424849945       19.73201154056099       20.34020317895425
H           18.53942916462900       20.63482721615797       17.48578643715134
H           17.17143592813352       18.51709114747731       17.82695192541760
H           16.26830873763222       19.84778512641898       17.04296333803850
H           14.60878055359860       21.05244192715951       18.41180157222907
H           14.56373151274717       20.73000130507068       20.16749740511510
H           16.73381754689025       21.66787979567851       20.52688866088237
H           15.87590373097549       22.82816441113645       19.48239034054539
H           21.32689416384197       20.33226772203971       23.61427001389991
H           20.13870507286123       21.42163901497876       24.37347216090644
H           20.07185210278016       19.25319340809715       25.54487800343091
H           19.84380480800735       18.39865622878248       24.01175466663098
H           17.91568601027327       20.43674094028961       25.23342999997741
H           17.63654152175656       18.69221611212709       25.09976692377742
H           13.39101328043264       15.86828461393480       17.63838164759163
H           14.63875716121400       17.94478181810707       17.21459532458049
H           15.35824679549684       18.49068348776343       21.36935909817685
