151
 energy: -221.322630227367 gnorm: 0.003982872778 xtb: 6.7.1 (edcfbbe)
C            9.36465915189013       15.09941129368474       23.80493850490843
N           10.90940489797262       12.91310906992279       24.62107336600089
O            9.97266798477019       13.78252655707968       21.83101394891234
C           10.48098110338456       14.57022453298065       22.90755686855821
N           13.20498248513858       14.28927105601512       21.03422278741936
O           15.65200317567042       18.92342495035754       23.44835411429745
C            9.50337202097265       14.53274399064429       20.73350617643471
N           18.08686017327189       21.00694298378888       21.85207875478364
O           24.06426382688815       16.92461417277095       11.27971168110011
C           11.43819548583575       13.68506270739818       23.68444884717331
N           19.48347283004075       21.08465096923303       21.86830980141043
O           21.14200894907223       19.50675182878685       15.26466256172924
C           11.69732262847177       12.11963138449181       25.32571492271687
N           20.50244757910111       20.86580460910473       18.37995969351955
O           19.99578590342156       22.87571477459171       17.48057661289808
C           13.07053566975748       12.05906141957189       25.14761766766740
N           21.50278117053765       21.72491169266017       15.20411972377774
O           17.08423993939200       20.88924177960067       17.82669056054465
C           13.63319525977364       12.86257829651551       24.17178816124612
N           23.36550220580595       18.78443191164035       12.38283232986142
O           21.44693051471359       20.90380771656762       20.80109788507090
C           12.81361786294068       13.69002140428886       23.40843143284579
N           27.99637977110566       21.08154831958917       11.47119232174444
O           15.38925700889160       20.90808404123784       22.43568939445831
C           13.39889949885675       14.54929095053309       22.37255638926898
N           15.95953839070065       18.59450308058205       18.95822356631798
C           12.65949344439880       13.07276278631621       20.48609222359589
C           13.73832978520161       12.00597480900011       20.31037744387769
C           14.16169952835321       15.68221666360953       22.54083584149905
C           14.67751084150969       16.23174388371173       23.83407784055875
C           13.96676577944756       17.47747061264146       24.41253216567064
C           14.50642235079752       17.72647127072182       25.82406069438339
C           12.45698430898377       17.25655484179409       24.46887565350777
C           14.23607936030740       18.72083803769056       23.55588115034575
C           16.09303381268135       20.01632580175954       22.85419690662119
C           17.61174063402878       20.00937628481695       22.80589623985252
C           20.21990014822130       20.92073656149126       20.75879767976397
C           19.49226401690267       20.83317397370991       19.41299475468542
C           20.70114954421751       21.87584039527928       17.53069347732055
C           21.90595748086593       21.66264738162748       16.60702164679551
C           23.03243868726229       22.65300000788353       16.95047483524653
C           24.27748311965392       22.35137371966637       16.11926711206945
C           23.35929089639207       22.54872033520319       18.43930991509902
C           21.21239576047513       20.55283216073434       14.61880627859037
C           21.14788714893475       20.49440959111482       13.07565833281736
C           20.91859734231007       19.06915676859735       12.56937111585007
C           22.12998437352044       18.17226238243584       12.82121454337077
C           24.27283441462427       18.06744044802654       11.69422402107046
C           25.54680041832947       18.70938219731089       11.49830864078968
C           26.67084910900070       19.12068090020023       11.36388698482841
C           28.03147447669178       19.63332411050111       11.22853076341288
C           27.11011168825342       21.81062311657230       10.58535746806615
C           29.29077042837489       21.72927631515578       11.52866099148026
C           28.85298328210640       18.92981865950916       12.32375840364786
C           28.55932351534599       19.22193785353543        9.83924789842533
C           23.59942050800619       20.11955956578324       12.87939919944581
C           22.44402229443524       21.03170621194346       12.46573764852613
C           21.21165234920134       23.04109098326327       14.66997070063690
C           18.63685110815717       19.57977304543739       19.22503609679873
C           17.81672172327405       19.67742114623862       17.92537796659709
C           16.85503358034519       18.48540220717781       17.82965798105741
C           15.14798215420863       19.79165798368801       18.84937842103153
C           16.06938188599490       21.01146469264014       18.81203417156052
C           20.11683220065743       21.32764913627804       23.15851732939039
C           19.68468018566461       20.26161733286757       24.16090777196699
C           18.16029713222864       20.23342174119059       24.22827118049250
C           14.45490489542821       16.15480972191396       21.22706328658360
C           13.85269054450698       15.25180619784685       20.31385801252486
C           13.97457089708991       15.42404257195132       18.93933101737847
C           14.66629171201327       16.52308520837117       18.47605337615468
C           15.25471271513570       17.43167850481048       19.36600705306288
C           15.17512482916645       17.23445803837125       20.72977787495476
F           20.06407819049494       21.26406272845389       12.61210083065724
H            8.68782015065856       15.72995710124910       23.23487895215567
H            8.81522980256812       14.26055964938991       24.21964376994512
H            9.79212025674935       15.68386246394553       24.61324987771678
H           11.05104555317852       15.41037774247639       22.48097198116786
H           10.30363272216940       15.15752672685179       20.31747441394674
H            9.18066285375478       13.80637171335604       19.99163795833773
H            8.65925651023517       15.17111776545937       21.00721865801678
H           11.19686181942283       11.51382032623304       26.06850546470069
H           13.67682354706281       11.40280066870283       25.75038609577851
H           14.69789603359481       12.85089631280254       23.98768687622031
H           11.87394122862247       12.70769562458308       21.15072166249778
H           12.20744173687427       13.30867614185672       19.52014273258621
H           14.16335064156853       11.73575376027348       21.27403299461760
H           13.30591886680451       11.11815712009549       19.85911532671124
H           14.53545025128608       12.37557259884931       19.66937411562323
H           14.60751779969839       15.44378702253098       24.58654083699588
H           15.73163178033150       16.48349334183201       23.70117609411462
H           14.28449988435618       16.88022398019351       26.46832457612256
H           15.58310196212462       17.87031505779684       25.79656508620710
H           14.04909836477722       18.61441183453091       26.25387005949370
H           12.04859034933691       17.17015050456181       23.46578178923671
H           12.23648988121698       16.34106125732573       25.01170668002064
H           11.96583137052373       18.08679525908567       24.96974649950051
H           13.78648306489911       19.61182424287594       24.00548928675877
H           13.82374396008736       18.60054074473026       22.54951677966088
H           17.94068713272308       19.02537264438412       22.45184436247397
H           17.67167602468921       21.91389543503126       22.07077118885801
H           18.87214390550897       21.72735426644235       19.28655470881186
H           21.16812795663670       20.10838233020264       18.41051424437848
H           22.28057273497938       20.64523735759985       16.76089863834956
H           22.68299321346169       23.66871457571359       16.75085506565302
H           24.07865703208996       22.43157980420165       15.05489523769933
H           25.06936409896021       23.04900770468382       16.37548164510820
H           24.62929731812639       21.34348433686511       16.32775009798773
H           23.64629548985545       21.53424459499962       18.70730895396778
H           24.18075584174501       23.21613854448999       18.68529787610449
H           22.50229610063663       22.82259749371181       19.05097423581202
H           20.05319014526025       18.63809489931499       13.07287538196258
H           20.70597848552584       19.13397219702190       11.50095756618759
H           22.01842941371739       17.22878449731530       12.28334860477437
H           22.19563325261100       17.96363422690880       13.89507240319242
H           27.54919451782151       21.99665886490215        9.59232227305934
H           26.17939146254307       21.25959028064211       10.45647570301368
H           26.88588749951287       22.77474869845362       11.04356854068785
H           29.13339305179043       22.75709766529953       11.85355412880214
H           29.92821128309491       21.23763509252424       12.25679468643280
H           29.80588708177533       21.75596347962510       10.55646795437471
H           28.60475649202911       17.87140846451254       12.33713313746565
H           29.91713661910793       19.02951303869336       12.13163255528786
H           28.61429563541293       19.35642096613436       13.29364238418681
H           28.52720415005271       18.13972464229590        9.74576862443950
H           27.94632256123198       19.65251081864855        9.05074092006928
H           29.58698215303785       19.55437518642020        9.71592458614329
H           23.67085045879060       20.08699237726423       13.97292235352476
H           24.54101679630528       20.49252976843069       12.47653304716525
H           22.33808291757286       21.02891902620742       11.37945669644701
H           22.63876973804159       22.05027875501033       12.79037666194506
H           22.12978382988873       23.59853654345207       14.48672198109885
H           20.63486077235591       22.97393295445627       13.75569370901707
H           20.61121691519032       23.57432688444223       15.40887165863378
H           19.28070987003458       18.70316229224260       19.15875708321834
H           17.95103394995243       19.45856058314902       20.05884468394841
H           18.48705032465265       19.69817977095473       17.05868986917243
H           17.40679775980990       17.54750385283553       17.89545864811956
H           16.33239292399491       18.53069188587295       16.85776876101523
H           14.52043304561736       19.76944583380523       17.93885388045259
H           14.49719302292757       19.86706641044690       19.72252249730433
H           16.51294083398475       21.15646047775251       19.80402236227134
H           15.51012119533904       21.90652404278142       18.53567377156859
H           21.19408465613960       21.31515265964303       22.99524886701659
H           19.81497166456234       22.32087236562912       23.50797156041935
H           20.10743953222955       20.48745103422477       25.13826121788188
H           20.05734267192549       19.28921748126746       23.83662381682550
H           17.78407801974750       21.18370013851418       24.61460889399948
H           17.81378443385480       19.43220117372382       24.87920205099820
H           13.53356360451031       14.72616011153351       18.24389023479195
H           14.75866378413612       16.68704304584596       17.41248133287972
H           15.68863614100647       17.92489007938936       21.37424407009712
