151
 energy: -221.321130073419 gnorm: 0.009025479170 xtb: 6.7.1 (edcfbbe)
C           10.36141287559022       14.35120510104939       22.27519009942280
N           11.90479873850517       12.14301797007434       23.05724495415629
O           11.24653443063130       13.16625316844708       20.31089004108286
C           11.58727828780299       13.92898179401075       21.46634259215890
N           14.53338528449093       14.11432566259953       20.04945882826484
O           16.08063727681245       18.66543131657162       23.16855468239048
C           10.67150734357879       13.91203196129498       19.26080990892396
N           18.05806653076324       21.46009466512128       22.17334305346690
O           20.88859802583907       18.74980752894677       11.18834348072999
C           12.50129628782861       13.05085813544735       22.30152875894991
N           19.36415231590745       21.92303609668626       22.37151600114073
O           22.41537419368930       21.73584058909276       15.93510980576036
C           12.63916962455287       11.34392158762247       23.81146518831649
N           20.67699246895683       22.48567200049043       19.01181269106134
O           19.49023322198306       24.20210306502691       18.14212736966984
C           14.02128393901980       11.41711975241312       23.87178630710862
N           21.49273096332035       23.78163265487224       15.94943828502686
O           17.72712785464706       21.43730620269073       17.90844886435083
C           14.65527004729771       12.36221118753931       23.08339036510053
N           21.95441054729305       20.01374173883833       12.74251905601771
O           21.34689624720131       22.56535354456417       21.54244762553175
C           13.89771430200141       13.19500714805600       22.26453521009130
N           25.09734988402931       15.66560658925794       12.50544077161095
O           15.44395250068230       20.72778278403926       22.56624218187088
C           14.55686076244019       14.20068723429986       21.42376659425534
N           17.01821453086376       18.90800119209657       18.89106907941591
C           14.18579432222498       12.93457243042107       19.29611383059543
C           15.39847261107931       12.02150780411982       19.12839508104074
C           15.21386084019756       15.34188761715588       21.82508667177621
C           15.52972612384751       15.76937841686641       23.22342385587733
C           14.61233880932728       16.84434550680824       23.85053405219871
C           15.03083935577735       17.04219454938974       25.30943859463633
C           13.14937938672372       16.40848456280782       23.78544156972887
C           14.72977237149845       18.18109927240284       23.10918903965525
C           16.30454434349632       19.92671917688253       22.85703263212812
C           17.78332118752268       20.26327124395346       22.96488411590601
C           20.19927383736075       22.17393656674215       21.35023765469123
C           19.66500862167372       22.00320799880156       19.92652324607635
C           20.52231977707192       23.54611666635920       18.21071424210710
C           21.76845356564059       23.87828293273759       17.38059116824125
C           22.32176667578144       25.26013864249775       17.77371178308761
C           23.60172648624718       25.55738595448022       16.99663067566720
C           22.60041262408993       25.28457610795059       19.27562444411909
C           21.97487412284663       22.70643619699083       15.31423744179828
C           22.07079846108937       22.71777213924076       13.77697726091423
C           20.83153878430780       22.17418658387151       13.05905476630655
C           20.74448553665148       20.65715684663087       13.19829963108329
C           21.91184216149861       19.04731795657876       11.80671144601655
C           23.14401026036606       18.31769163204957       11.63075265199732
C           24.07138758522908       17.55608408340694       11.53266644856094
C           25.25671386976832       16.70237812788723       11.47519516904373
C           24.83183602152874       16.17207391971902       13.83623689488235
C           26.14976598232073       14.67279164430064       12.54841310606936
C           25.28707219848803       16.06410240466712       10.07801969137341
C           26.49682889301458       17.60444740770344       11.66363227156596
C           23.14914997324271       20.43821395280330       13.43081126202763
C           23.31602436528647       21.95286932764681       13.30766523861784
C           20.66577124868985       24.82309227172592       15.37416189095942
C           19.30736771588364       20.55488485573784       19.58340187814992
C           18.71107364431429       20.44957973743282       18.16627207883458
C           18.11338848079987       19.05083293343640       17.95519032391325
C           15.98061190932653       19.88699673006394       18.60322947620652
C           16.57260491201915       21.28940930317225       18.71717680990784
C           19.77540014112956       22.16143307602570       23.74865736925079
C           19.58847051880026       20.88797094766853       24.56849050560452
C           18.13438940288825       20.43615301713099       24.45649481521755
C           15.61687172571615       16.00397058654505       20.62829694692528
C           15.18723992701539       15.20166481683086       19.54089123425056
C           15.44012827385565       15.57636815590317       18.22591836742737
C           16.06920826165273       16.78142461291633       17.99987737364157
C           16.47281961141850       17.59917231476561       19.06531586676665
C           16.28557833683130       17.19648054039337       20.36983629307037
F           22.26499681898622       24.04771429080489       13.36205284349396
H            9.79765479191849       13.46589967379036       22.55008325253993
H           10.68243518102015       14.86454238495415       23.17571793967222
H            9.73223952777998       15.02173206678709       21.69681917523887
H           12.14554695966680       14.82218772884208       21.14113751257147
H           11.31127661170297       14.75800848582210       18.98652443915416
H           10.59025133640771       13.22516644914784       18.42156615450690
H            9.67734441983015       14.28270383811013       19.52241057489910
H           12.08759341441525       10.62096159796599       24.39626183733744
H           14.58026992245288       10.75159322027732       24.51016036125777
H           15.73214381131094       12.45035170829988       23.08779537996692
H           13.38085599301434       12.41125808316721       19.81840505346495
H           13.81308015116458       13.24572092617882       18.31903740584493
H           16.21225816567305       12.56572587136820       18.65487671726732
H           15.73716444395287       11.66378227806781       20.09761130222121
H           15.14225366917295       11.16743789255128       18.51124770061300
H           15.48834161116761       14.89259087825666       23.87071588267039
H           16.54904709092050       16.15798258604455       23.23409097729796
H           16.08372850686943       17.30247388342941       25.36688192004081
H           14.45022670371904       17.83982582919490       25.76502088152241
H           14.86730656482823       16.13045277139449       25.87621945049131
H           12.81391156728007       16.36356895682459       22.75391724212174
H           13.02979935506381       15.42346461443840       24.23094102348724
H           12.51845772243056       17.11218650473649       24.32300212480214
H           14.07208369311673       18.93343400072743       23.55390720884293
H           14.45502262537957       18.06395994322250       22.05677013405820
H           18.36830517393396       19.43560560476614       22.55025916575487
H           17.37970959155705       22.18434332585313       22.42266329481083
H           18.79291109340430       22.65122773954997       19.79243028830133
H           21.57462208925804       22.02801658248448       19.07147912310860
H           22.53673844819045       23.12606879525407       17.58671985125471
H           21.56450812666813       26.01680848071234       17.55314939295459
H           23.43084502620108       25.54821263714850       15.92260098694358
H           23.98559139386523       26.53500834922299       17.27469378452626
H           24.35904446057481       24.81083976912470       17.22636146132361
H           23.31037316654823       24.50871392603252       19.55078990818889
H           23.01359707229734       26.24841643294591       19.55839052718112
H           21.68784776606805       25.12265462849941       19.84516003290783
H           19.91915837779345       22.61874839393350       13.45785662518763
H           20.91877297641319       22.44775387729590       12.00479014903304
H           19.91626214022946       20.26960498737706       12.60217727621556
H           20.58594070280785       20.39641243125585       14.25161192349802
H           25.71802503020449       16.59364364403204       14.32563033171744
H           24.06016672941109       16.93259689382714       13.79757010267835
H           24.47326875268489       15.35003609054616       14.44596456477979
H           26.30319785590198       14.24023574990330       11.56493759675047
H           27.10513568139892       15.06844342609211       12.92502134544353
H           25.82712191258473       13.87765031755673       13.22072155089471
H           25.11788449396832       16.83157198294925        9.32755119603292
H           26.24855641137976       15.60027019781717        9.88152747307397
H           24.50110007576064       15.31921049040405        9.99826393547010
H           26.49331154543006       18.39047544528727       10.91432191365504
H           26.49030721675970       18.06469676568317       12.64834265623122
H           27.40378051916701       17.01738592527280       11.54990918250812
H           23.07156679067722       20.17482110378765       14.48970347164242
H           24.01285914162017       19.93751361978986       12.99403225675922
H           23.48653035216860       22.22604395571440       12.26402096851283
H           24.17722384267829       22.27000122429817       13.89502756896593
H           20.22223701197891       24.49572386649019       14.44232587599508
H           19.86853183794413       25.04154080555501       16.08466627145675
H           21.24531956824842       25.72554986946759       15.18659061411699
H           20.20366591668388       19.93649228361374       19.62660996926536
H           18.57420771725867       20.17828029602960       20.29119010988520
H           19.48803072576515       20.64615989590394       17.41840357763802
H           18.86250523366048       18.28630073600585       18.16351212223137
H           17.79147066145674       18.96260037618611       16.90327616257095
H           15.56195492574696       19.74347702980482       17.58995308919301
H           15.17758201428015       19.77600040714578       19.33494043202206
H           16.80455181996917       21.49627597330431       19.76806797659624
H           15.86763403104889       22.03795519804558       18.35169889213264
H           20.81727195304235       22.47891997605431       23.72347079943971
H           19.16041642801742       22.96922777848070       24.16209474204165
H           19.84768714244310       21.08253294328442       25.60795993636197
H           20.24971661529587       20.11004242906435       24.18468459970903
H           17.47566895538912       21.18781233108653       24.89808909252947
H           17.97962266825956       19.49189078169912       24.97536109741083
H           15.13618724039904       14.95933384608748       17.39404974087203
H           16.24969272276456       17.10499930618806       16.98515691424143
H           16.65111844217082       17.82418736687452       21.16291261890090
