151
 energy: -221.318463748847 gnorm: 0.009382452286 xtb: 6.7.1 (edcfbbe)
C            9.23136904739123       14.91816902410509       24.28042873239374
N           10.65527667695512       12.52915111387855       23.83925466901426
O            9.02745133701697       14.09870641243249       21.96814121978083
C            9.91737611252690       14.63437272991743       22.94445626279492
N           12.19672274457865       15.12894066553095       20.48598841171600
O           15.74745138278197       18.45814855548859       23.47865590389257
C            8.05378917267781       14.99978581172690       21.48673138357195
N           18.15792163560228       20.78449049357293       22.26713699413746
O           28.88875208926957       19.40274458377743       14.74576624700290
C           11.00155569710029       13.58665579482492       23.11680551073138
N           19.55671942900578       20.83767729273903       22.24102813556569
O           24.29702652737669       21.50623590024555       17.10911707536217
C           11.52126777312439       11.55066446391803       24.01881601800300
N           20.45119855363048       20.99781449182299       18.71428948518641
O           19.80754483545446       23.05927585780124       18.05298889852435
C           12.80893237697956       11.57580479415762       23.50391275950022
N           22.22859843273648       20.78548412303853       16.59354525285888
O           17.31728335968113       21.15234655448044       17.90597749112352
C           13.18424953934332       12.67819339591564       22.76281233512363
N           26.71366270071550       20.03717264758220       14.86497828090398
O           21.47296279395280       20.64580097619574       21.08879789741857
C           12.27034223983256       13.71096921553382       22.53853630937894
N           26.79480308247084       20.42164284758007        9.53665639913704
O           15.50621432819682       20.66012519849810       23.12699839591588
C           12.72054301697734       14.85071988613203       21.73076632270296
N           15.66390500187444       19.19108672087149       19.03297150292759
C           11.27900755529139       14.29749182992613       19.74795204377840
C           12.02222489373798       13.24400160062557       18.92659831226068
C           13.76182942033042       15.70590475825937       22.01342919343045
C           14.56266042827329       15.78597712635865       23.27126214322468
C           14.09348081841507       16.87212151545203       24.26736118362486
C           14.87362341686300       16.70746098985397       25.57457963689320
C           12.59930770551235       16.72534067421188       24.54415387756109
C           14.34238607201836       18.27975393561538       23.70881182300853
C           16.19346345398882       19.66704437132296       23.20560464188565
C           17.70691196939702       19.65228146710962       23.07148004392079
C           20.24859100756804       20.75255785947231       21.09462385834259
C           19.47860446406949       20.87367650723352       19.77891256967520
C           20.55892084842719       22.09737520771600       17.95366555995098
C           21.70783787917738       22.10289640764009       16.94149733745427
C           21.35771501365282       22.98417548113755       15.71873476678020
C           20.16830802822379       22.48424182349950       14.89988118897095
C           22.57627629552081       23.17184424742354       14.81801969312288
C           23.55965510755593       20.62125354914187       16.67756481704286
C           24.21331165110730       19.33358501415004       16.14144636542272
C           25.57047080730235       19.05048936639813       16.79669915320655
C           26.67417766027058       19.98623230001817       16.30775283366492
C           27.84509002989158       19.76258507986061       14.19400248337652
C           27.79624280410236       19.93814296888958       12.76731502199039
C           27.94552743919263       20.10435148800783       11.58377429198658
C           28.12512649008126       20.31556660479591       10.14995812384894
C           26.00833066561568       19.20789759127301        9.65779550444558
C           26.78953004960715       20.91982925346298        8.17437691846422
C           28.89782286233594       21.63680509036370       10.00419544337892
C           28.99378267911573       19.15711636851398        9.61245168443463
C           25.46659476225264       20.43011402728424       14.25604513822660
C           24.37557014376568       19.41981707519443       14.61805607210435
C           21.28471086206753       19.77076318880727       16.15929858503316
C           18.53273411240944       19.69683691396673       19.50135466648694
C           17.81312755578291       19.84461963785407       18.14788194962454
C           16.66763110496545       18.82747839325592       18.05267807508941
C           15.10950499957971       20.49601978882995       18.71978405611296
C           16.24766138457791       21.51485999175430       18.76358268808737
C           20.23298023741362       20.89438868787265       23.53027158100630
C           19.82650286842519       19.70034958719236       24.38838286929998
C           18.30468658979256       19.65707263998620       24.49414246043689
C           13.91323227036328       16.54059921102226       20.86790491770961
C           12.91648223537470       16.15488015954647       19.93865355278827
C           12.79202985439081       16.80393453331281       18.71512107999344
C           13.67934025267643       17.81507884939047       18.41787177469824
C           14.70199311648160       18.17297110319957       19.30958476004938
C           14.82423715913025       17.53584330053558       20.52500779222233
F           23.41570077550154       18.21258598595978       16.43347718238057
H            9.96988798213558       15.26134043348950       24.99856434195631
H            8.46948897637219       15.68581955495107       24.16891426874091
H            8.77605604881781       14.00130430802459       24.64401862991403
H           10.36133821624243       15.56192823352889       22.54738042346744
H            7.57774721707251       14.49781159539169       20.64656646961933
H            7.30139291510999       15.22613259805929       22.24572804806385
H            8.51911238319389       15.93077474335073       21.14505994214534
H           11.16170163035272       10.71648509896769       24.60538869808097
H           13.49100504529609       10.75889165830298       23.67453894888796
H           14.17399374558458       12.75098224077361       22.33388442314680
H           10.59638104758632       13.80752917796880       20.44510514473307
H           10.69456185990627       14.94146480387869       19.08670658591117
H           12.56661361127932       12.56972834809294       19.58316421147506
H           11.31249180370833       12.66462618702536       18.34438778759366
H           12.72977332126894       13.71979009371548       18.25141802434897
H           14.51138108829445       14.82568662671316       23.78866508683605
H           15.60555030417630       15.98397104053077       23.01672770099605
H           14.59442295994395       17.48358432467635       26.28230609108029
H           14.65741199064034       15.74080142726528       26.02081290156034
H           15.94157464447560       16.77422612932694       25.39070404309819
H           12.01535628381368       16.93466349220937       23.65305230504822
H           12.38554005732275       15.70910512053643       24.86228003445219
H           12.28405802136161       17.40605377301073       25.32662803142764
H           14.00791338276350       19.04660811095699       24.41582205768175
H           13.81212000283592       18.42883726744552       22.76391709321361
H           18.00943957353016       18.73301324776821       22.56047126135459
H           17.77172051245147       21.64788354542858       22.65477315768240
H           18.90728612028087       21.80849400128014       19.79214650799984
H           21.21531281031245       20.33919563912626       18.74226516432993
H           22.53441053322046       22.61063315669669       17.46106157611307
H           21.07934703036064       23.95067350331832       16.15167344519324
H           19.89033080187446       23.24923037344228       14.18087454756278
H           20.41979671156225       21.58368273897180       14.34618435181176
H           19.30966271650059       22.29893460915848       15.54111841967747
H           23.44283607920295       23.47976375054533       15.39825417133941
H           22.81421093735024       22.24489918232804       14.30267881515300
H           22.37053254177306       23.93292375593686       14.07036983339793
H           25.48030882394725       19.14155891131374       17.87993396247179
H           25.82734817415998       18.01634242920093       16.55503232224831
H           27.64592631307576       19.63432956339436       16.65950875287774
H           26.49177560228364       20.99328053004969       16.69374331817686
H           24.96657091647528       19.45363605651837        9.45621075828395
H           26.31807609071152       18.41778774325894        8.95916508357598
H           26.08625333603209       18.82941505913196       10.67492808627348
H           27.05899837325201       21.97174843247698        8.16447698851032
H           27.45897986920835       20.36662549624188        7.49972567796800
H           25.77613379689355       20.82794860457028        7.78435646344931
H           28.26487045961038       22.47365125604636       10.28687724489597
H           29.76334889331178       21.61729874617287       10.66052048138380
H           29.24041121002114       21.76749243333543        8.98217939475931
H           29.96582748284795       19.18201559825707       10.09757684069953
H           28.53217501111327       18.19509752618490        9.81890885734685
H           29.13707196090299       19.26235493153176        8.53964063682891
H           25.19214479040097       21.42052638621939       14.63501026841386
H           25.59024980685669       20.48366705893199       13.17324751834142
H           24.65671081952016       18.42786144375393       14.25797445229934
H           23.43836183890917       19.70632719972350       14.14177977207660
H           20.29538079225891       20.21122421123735       16.15449640657184
H           21.51902231348589       19.40830733374462       15.16059734392113
H           21.28163864661875       18.91992144273330       16.83626545724255
H           19.09891850822825       18.76617520013246       19.48874013394978
H           17.77946349632421       19.65322881512452       20.28490495136135
H           18.51897198494415       19.67744684932229       17.32879811837680
H           17.03386939421823       17.82480140342693       18.27116885618873
H           16.26463699245713       18.84398255680050       17.02492449682187
H           14.63322711504551       20.51925005711199       17.72572469924433
H           14.37180936825078       20.75714582558326       19.47825010350452
H           16.60090932678023       21.61202743345009       19.79649071911688
H           15.91276784362528       22.48857667673651       18.40554996792202
H           21.30444045119476       20.90418667130461       23.33393535762620
H           19.94595662224711       21.82954409178812       24.02271598668429
H           20.27483739731640       19.79299518679278       25.37612611335544
H           20.19246510682744       18.78222033882244       23.92614399826473
H           17.94065765897416       20.53646440000398       25.03122010063831
H           17.97707670381118       18.76541189203216       25.02706059813503
H           12.02652917060795       16.52792093593084       18.00700859858016
H           13.59479074494515       18.33291770998242       17.47465014352365
H           15.63159919542577       17.81155056507841       21.18240381192270
