151
 energy: -221.321466366412 gnorm: 0.009991464988 xtb: 6.7.1 (edcfbbe)
C            9.32113120822116       15.02557403310302       23.33745432235569
N           10.96278979519085       12.89303038108232       24.03117740932994
O           10.10248874351118       13.98598396419612       21.25326524842260
C           10.50374916726592       14.66488181182007       22.44201493755481
N           13.27158716258878       14.61954164285825       20.55546180553253
O           15.84118683901742       18.84498616713856       23.55292008075816
C            9.55259751496346       14.82075527674077       20.25753379992395
N           18.55694837425599       20.76354325021261       22.20155084191527
O           24.81186805837266       16.36240944184118       12.72343707319400
C           11.47472716371664       13.73768689807863       23.14953323423767
N           19.95215850481726       20.63476310062685       22.21746999665543
O           22.21016548940914       19.31695299240506       16.61770886406497
C           11.76451079954160       12.05586399023530       24.66685856321862
N           20.91391034693989       20.98943617201732       18.72085879985374
O           20.50826647483898       23.17288529540001       18.30702833462534
C           13.13462193463737       12.01436345822990       24.46185248670668
N           21.36718398783053       21.24733493227187       15.82801562333961
O           17.59029708280710       21.31303836736243       18.18535762108909
C           13.67874986908597       12.89628218124552       23.54432659211066
N           23.60870749328332       18.15999124141073       13.41355342527778
O           21.88826212522839       20.42827166596039       21.10483369258462
C           12.84622270953829       13.77911651874284       22.86035201703526
N           28.03424173840184       20.53646478352609       11.44114008022090
O           15.84934746674307       20.91959737904453       22.69947538357809
C           13.42641718246638       14.74352251243458       21.91725354455831
N           16.22384027911733       19.01475879863597       18.99657575052887
C           12.81723287316142       13.43300779424237       19.87419889583552
C           13.97739327128212       12.47194105152652       19.61915172378439
C           14.16997175100942       15.86062310553936       22.22331629164293
C           14.62483497917784       16.26183401794664       23.59179233629119
C           13.94749932143318       17.49230635043746       24.23974230216087
C           14.33374777849074       17.52561390541998       25.72170155379410
C           12.42850083597833       17.39916321199124       24.10775455924549
C           14.40584177124185       18.80134268828317       23.58241563468221
C           16.42980580412956       19.91907554494773       23.05877214567636
C           17.93907918446114       19.72848944680016       23.02579570385818
C           20.67198202961421       20.59118188037305       21.08625616027297
C           19.93255338484626       20.81316896351635       19.76663597066439
C           21.10445759475353       22.13329442240244       18.06089968289363
C           22.07795722766239       21.97264291239941       16.88623073797000
C           22.65618900817867       23.31030108591383       16.40742837333917
C           23.48584229351803       23.13297898286026       15.13471486851767
C           23.53940736490567       23.88085017622718       17.51741567171038
C           21.56975429134388       19.92256959840017       15.75610711885806
C           21.12560954107460       19.16542058622591       14.48565900778202
C           21.46710468760479       17.67583197203152       14.55725529101985
C           22.97205462650263       17.42992221148032       14.48941528881990
C           24.57381877018469       17.56928586968020       12.68052218042694
C           25.35766295121487       18.46077711674828       11.86307138274384
C           26.15922576241054       19.11832639820910       11.25025894945093
C           27.05970711704565       19.98463480562877       10.48992343437363
C           27.44243041203300       21.34660773179693       12.48696677251801
C           29.16378495432453       21.21884117050896       10.84523985614576
C           27.75550929573999       19.09169011063924        9.45140122110239
C           26.19971331219873       21.04425503136626        9.76822466769381
C           23.30587521286506       19.57082037189349       13.35515978341789
C           21.79391687684990       19.77198468769938       13.25150854486099
C           20.29790408034123       21.98509702810541       15.17767263062710
C           18.99489402809792       19.66894718673858       19.37340726152958
C           18.19156169128293       20.03106172489717       18.10937994000795
C           17.10979177236561       18.97187412202456       17.85818776080395
C           15.54503821377814       20.29464837258632       19.06742618190672
C           16.59190572604796       21.40185812963918       19.19098306822001
C           20.59849968545126       20.63812357502737       23.52269488099749
C           20.00427822268789       19.54711303006894       24.40856590225608
C           18.48623039638063       19.70588702100481       24.46470741766537
C           14.50820172616905       16.46089796440050       20.97418521760322
C           13.94070237664756       15.65120245516703       19.95669118528060
C           14.11654919794394       15.95402866156421       18.61140073325183
C           14.85318309894757       17.07169125487727       18.28056457462134
C           15.43038946484087       17.87538756847292       19.27332310855261
C           15.27207479144979       17.56372313298769       20.60919101519519
F           19.72948791163264       19.24600911782461       14.34548406020651
H            8.65303711171226       15.71357519603569       22.82626177424778
H            8.78158975432800       14.12147566767230       23.60118715917826
H            9.68452478052168       15.49857617482975       24.24467590083792
H           11.04524906332637       15.57962059767267       22.15194364779735
H            9.41952617717427       14.19033198571862       19.38148727426696
H            8.58540419833494       15.22914386350689       20.56008245882138
H           10.23534805441557       15.64445669175895       20.02018495190683
H           11.27909335300449       11.39649306526172       25.37352163645227
H           13.75293634174843       11.31614666992878       25.00342264719609
H           14.74173426493980       12.90722955708797       23.34742768677897
H           12.04949485825165       12.95277319620063       20.48446951408206
H           12.36402407748833       13.73364165596890       18.92687469342158
H           13.62605469396480       11.59701705445352       19.08162255085472
H           14.74910309231469       12.96196708067402       19.02944371445603
H           14.41358594638691       12.15087006523227       20.56185397189301
H           14.45307255854624       15.41279163739221       24.25624825992905
H           15.69890971145585       16.45296939259000       23.55682110210436
H           15.41040588992112       17.62781466594901       25.82184767897721
H           13.85737117059608       18.36456331584972       26.22153689149606
H           14.02428511088055       16.60801148520386       26.21663364760779
H           12.13770296743441       17.41627058875341       23.06088131987349
H           12.07413166131513       16.47153936971313       24.54934310443879
H           11.94651579195618       18.23255674096736       24.61243956450644
H           14.03971995085955       19.66753806143925       24.14178087927607
H           14.03338766704139       18.87455534189696       22.55654091272330
H           18.14978525446769       18.76212941064644       22.55290342519558
H           18.28042538568597       21.68670954889429       22.54216531522023
H           19.37082104295667       21.75165438922282       19.83216070187602
H           21.50730535818716       20.18789565496513       18.52036026436692
H           22.89970916617987       21.32409422296274       17.20706718838427
H           21.82960040715003       24.00603517160840       16.23109558214634
H           24.26801205365477       22.38941087328524       15.29267597395134
H           22.87394100762524       22.81617607362929       14.29222081137316
H           23.95824430130322       24.07679071964362       14.87669901564806
H           23.91643368635192       24.85723536138546       17.23046108253275
H           22.97688417499567       23.98862470032688       18.43743155548095
H           24.38447437546051       23.22643352055742       17.70623256411584
H           21.09067463260667       17.26070355862065       15.49115021773499
H           20.95868121056540       17.18707585844611       13.72595506737420
H           23.17536907751868       16.36832907728837       14.33295448789756
H           23.42285687658060       17.73886679496000       15.44012247867686
H           27.14181415841970       22.34532555544447       12.14285093517136
H           26.57801429789045       20.83408978435394       12.90234691994429
H           28.18043530900873       21.47172656928045       13.27954024673144
H           28.88153529907236       22.11814612784288       10.27449417136899
H           29.82846790992276       21.52589079033572       11.65336553443231
H           29.71517653226801       20.54047990715643       10.19814648914854
H           28.46298921740173       18.43165129391475        9.94587813747995
H           27.00889705209815       18.48302210270941        8.94801270654627
H           28.27192796711461       19.69025393054989        8.70701940405139
H           25.51253371872426       20.55056409853852        9.08777848315057
H           25.62178178145285       21.62543829590025       10.48325605974911
H           26.83755451183043       21.71472287513899        9.19726356572143
H           23.68595221455426       20.06290158936172       14.25941268017953
H           23.80114257620543       20.00105694345411       12.48435358146508
H           21.41244934767420       19.25918423233855       12.36670267964319
H           21.56196095185269       20.83115570361978       13.16593114206889
H           19.56724999236028       21.31406607462548       14.74023133301790
H           19.78920592604079       22.58505423978263       15.93421019881269
H           20.68366819063147       22.65328233182941       14.40623910126446
H           19.58286463149359       18.77516530137493       19.16465852862807
H           18.29764311021507       19.46002269724317       20.18038397396239
H           18.86000521984989       20.09857399087817       17.24428143625041
H           17.55978681039787       17.98148192855002       17.78626122474803
H           16.60190287298540       19.20918416978638       16.90674194068950
H           14.92528021988650       20.46569558693592       18.16814759038876
H           14.90223111827551       20.31821550701046       19.94795460254609
H           17.04538374137599       21.35545197357239       20.18774902148693
H           16.13292139624508       22.38255505159604       19.05354667602678
H           21.66383104948994       20.47924645762481       23.35300132329090
H           20.44994539229468       21.62325768304757       23.97897711356313
H           20.43072229777802       19.62168895919880       25.40730796773709
H           20.25648123245666       18.56967560337655       23.99519467753209
H           18.22174098692413       20.63783366962600       24.97035111071673
H           18.03487076936263       18.87489035119235       25.00691254869692
H           13.68735517302990       15.33678046716597       17.83704120851207
H           14.99517213696397       17.33029151574942       17.24193025378027
H           15.77467244620351       18.17465477657263       21.33666217743131
