151
 energy: -221.324964581638 gnorm: 0.009700289868 xtb: 6.7.1 (edcfbbe)
C            8.81379827963419       15.65157698622499       22.69727789562729
N            9.93619421047689       13.30334934057115       23.78633914791819
O            9.47125473884316       14.06719480726204       20.94166502773452
C            9.94726426611669       14.91136267353223       21.98850393776891
N           12.98760795496961       14.39812363701346       20.69599335866693
O           15.34883266916168       18.88181458717656       23.44056139052721
C            9.09840651647651       14.74547596538640       19.76138876603663
N           18.14286274767994       20.79396494731595       22.27120854918108
O           27.48388846047148       17.75687660507196       13.35302219451117
C           10.69036006920222       14.01049252389593       22.95858365471722
N           19.50838073713430       20.84285855940454       22.56683464827112
O           24.34312383093395       20.27325985693043       17.37802231409460
C           10.51276246948290       12.50452283495595       24.66602744644708
N           21.03069041518277       20.81950674467386       19.27096397877967
O           20.32432301673781       22.88239293857400       18.70263036079217
C           11.88703374673580       12.37883972490570       24.78905390104275
N           22.33475961383277       21.03467154244014       16.71304064373285
O           18.04829413526035       20.42396193824966       18.07492624822499
C           12.68324800301338       13.10034371184258       23.91924986104736
N           25.99994509069351       19.27645700569488       14.15885014496705
O           21.63775594665582       20.64226887824248       21.87419730655740
C           12.08927568633553       13.92903648420574       22.96695110104627
N           25.91133330274623       19.88382007602315        8.62399779975440
O           15.39092662987315       20.80582986869569       22.29107102066508
C           12.94658394835999       14.68229638880782       22.04335198331586
N           16.59984471288474       18.28449556752117       19.15587882364742
C           12.39506795356542       13.24567226294002       20.06430789825347
C           13.30899823697201       12.02610309617205       20.16474442600212
C           13.80985306058587       15.71130084100661       22.34664083840519
C           14.13088793248597       16.25842767009307       23.70172327733643
C           13.42398141719850       17.57095238280992       24.11149276405388
C           13.72887848177835       17.84532585005101       25.58649823951681
C           11.91479864192699       17.44901751653699       23.90767823419834
C           13.92819246323162       18.75286524102292       23.27478587578305
C           15.95396518099611       19.91905679827306       22.89281475942195
C           17.44939758303162       19.86785433041171       23.16229346661038
C           20.43646048616653       20.66877741580110       21.61350246792000
C           19.92956336534736       20.57025712290604       20.17608183481900
C           21.15331342798283       21.98622992778811       18.62482157268414
C           22.39901388286018       22.07646549870628       17.73485159756422
C           22.55467132560125       23.48461820201149       17.12943435039242
C           23.63504277800346       23.50734742501979       16.04969455789437
C           22.90788925453303       24.47262462429462       18.23992920189005
C           23.38445242322854       20.20480433515944       16.60643855425793
C           23.42877115682737       19.15501506635371       15.47499986574436
C           24.52284760602393       18.10879361471408       15.72161732306375
C           25.92521970792219       18.65984636194846       15.46301093528079
C           26.76568851103339       18.74701941344661       13.18887153873249
C           26.72749692489653       19.43496644517780       11.92312694968794
C           26.79124772575721       19.90294458676271       10.81560916010292
C           26.84943903255463       20.57552996870861        9.51926199767909
C           26.19738631279865       18.47289706336322        8.45409915891883
C           25.70520539358646       20.51609997926194        7.33739699180955
C           26.39696917961589       22.02615527413877        9.75737488035299
C           28.31846939851487       20.55974994361956        9.04864985433191
C           25.04907805829787       20.34311646619303       13.96435975263151
C           23.62642924414808       19.79363145993998       14.09582272531315
C           21.13707369157080       21.03688713716461       15.89231292771197
C           19.26091982977983       19.22993441848735       19.86436611934580
C           18.69252621608020       19.21033329134557       18.43225628708337
C           17.71640319677542       18.03569609005261       18.26869372395941
C           15.89491165076087       19.48822634165573       18.74676987123743
C           16.86159692672001       20.66712036412889       18.81465371794285
C           19.87746498415477       21.15781828183714       23.94040192931998
C           19.20437197975650       20.18577990191271       24.90354795863951
C           17.69924964349603       20.18116467782301       24.64904894878424
C           14.41789965860736       16.08941304465453       21.11337125707919
C           13.89387195012051       15.23504765885621       20.10968640452407
C           14.31011312512299       15.34365693466951       18.78706974536153
C           15.21581980414606       16.33141643580847       18.46216256967683
C           15.72469072981698       17.19720994127868       19.44036968336815
C           15.34912005639203       17.05992208014921       20.76043670669808
F           22.21418666600420       18.44055033761148       15.46292309359238
H            8.31340141334905       16.33270618724607       22.01384478924920
H            8.09964204400301       14.92635537438715       23.07401774230703
H            9.21613979152517       16.22287126376639       23.52759734681130
H           10.65629792119447       15.63618639683076       21.55637613135439
H            8.87811319474718       13.97349492356647       19.02977221968434
H            8.21285223262383       15.36357866936333       19.91276136447632
H            9.91908304315570       15.37204691876470       19.40095866895145
H            9.83756576000452       11.94898402478748       25.30025662470804
H           12.31606912989610       11.72951895356673       25.53432952665565
H           13.75945977074394       13.02219251860753       23.95588726914875
H           11.43338094220691       13.03432414658269       20.53766476995766
H           12.21279135034930       13.48977511906029       19.01513412737760
H           13.46482922831718       11.75660699887468       21.20689431849702
H           12.85755230587434       11.18256575584493       19.65184973168696
H           14.27488934429753       12.23953813286920       19.71204889660816
H           13.87017606046397       15.50507774806970       24.44720986341887
H           15.20805278990413       16.42978972024340       23.75188814171339
H           13.38427255816561       17.02020572877503       26.20350966266268
H           14.80010419876815       17.96523142997499       25.73430735475017
H           13.22869873239167       18.75205244965725       25.91706403565249
H           11.53473854138580       16.59810976448359       24.46767164070712
H           11.40675780225011       18.34702489460548       24.24839363241592
H           11.68538809249996       17.29971767857956       22.85656015212164
H           13.45437371871709       19.68758901143046       23.58890942268335
H           13.71433169684606       18.60055051873662       22.21223141249985
H           17.81151139051935       18.85671182129681       22.94313552627092
H           17.71741965792626       21.71925313205931       22.35192351003836
H           19.22042834445296       21.38675399187991       20.00925173441174
H           21.79937998841837       20.16553690035459       19.29484541746140
H           23.27710563471125       21.85496904462385       18.35174056325792
H           21.59141937113682       23.77746759102510       16.69853526188154
H           23.81344079286037       24.53171842207868       15.73751701636337
H           24.56351485726644       23.09814737433202       16.44372612840422
H           23.34068079096810       22.92978146423802       15.17773435378695
H           23.86390174988411       24.21521754933185       18.68838438044147
H           22.97136230850586       25.47848511867152       17.83655457356818
H           22.14520109129773       24.46441501918913       19.01325909138141
H           24.46170787982874       17.75062405711148       16.74957933293366
H           24.32665030462410       17.27209313567912       15.04695318892373
H           26.65596757937926       17.85061831080721       15.49573873896436
H           26.16912263880097       19.40447621207841       16.22476249621039
H           25.30522085419421       17.98561222630367        8.06185444117440
H           27.02571386051193       18.28090126254722        7.75574953296249
H           26.44001639788657       18.02522360763587        9.41625935534898
H           24.89974146027766       19.98440317256566        6.83216853559169
H           25.39763617657593       21.54879860859089        7.46964118263661
H           26.59321939107039       20.48211173342914        6.68851326842338
H           26.88879330426015       22.41225070586346       10.64657690637804
H           26.66694320819263       22.65857466410669        8.91677711467133
H           25.32177656103948       22.05872124726041        9.90705885893119
H           28.40479793443983       21.03474512808079        8.07488789527339
H           28.93483824693065       21.10412792257614        9.75849070874258
H           28.69074245980585       19.54022581982881        8.98371741037754
H           25.22751531991385       21.10751361141660       14.72837746659915
H           25.19179330980089       20.78061850355428       12.97568971310328
H           23.46940503738834       19.01654818519705       13.34565579630618
H           22.90212142923447       20.58513490900279       13.92507914197201
H           20.80845340423362       20.02369604219058       15.66784433970037
H           20.34003047915979       21.52868060199624       16.44677799448844
H           21.29267941184116       21.58080441136279       14.95578266498403
H           19.98557874137998       18.42295402008510       19.96568117612369
H           18.44210610032644       19.06818734774357       20.56222925739442
H           19.51032359425303       19.12216730381299       17.70860648054606
H           18.19937495794260       17.10020268712297       18.55374908618613
H           17.41456093304765       17.97884891156282       17.20833092717207
H           15.49526187400839       19.38978525374839       17.72140626707651
H           15.06569384031008       19.66777666724360       19.43366275510871
H           17.09133618346464       20.87417424259749       19.86652476718638
H           16.42076716686575       21.55834223175171       18.36392663238301
H           20.96175410116765       21.09690223282825       24.00043193639129
H           19.55757354320384       22.18163153035941       24.15569334538720
H           19.41565585033949       20.49279688715710       25.92780562617474
H           19.60709829432960       19.18318598440792       24.75127055043414
H           17.27658096154497       21.16101804092764       24.88468637807466
H           17.20603680279389       19.43197891429056       25.26653953484667
H           13.93022021276195       14.68815877664979       18.01893760192214
H           15.53347991922587       16.44480152172314       17.43610417377441
H           15.78985717637576       17.71773129235343       21.48727651572798
