151
 energy: -221.322094407850 gnorm: 0.005671451150 xtb: 6.7.1 (edcfbbe)
C            9.56506033979597       14.33535795245068       23.77119318482535
N           11.60775585977541       12.59057950633916       24.56643539854077
O           10.39681069703361       13.05558169978762       21.83642450687408
C           10.72742408090168       14.02493404727391       22.82962744113032
N           13.65155223437875       14.32941828398907       20.89618261833370
O           15.16882406295887       19.35945251192339       23.31287675366291
C            9.52360482994726       13.52259010076962       20.83052244534301
N           17.98821706393400       21.16918018484038       22.01169002223894
O           22.82843056939559       17.37872374670462       10.99133449803763
C           11.89964612606309       13.44890220828136       23.59871311368756
N           19.37015487688507       21.13303652297885       22.23046601832010
O           21.11641923830389       19.97080849691053       15.64003791980640
C           12.58834375632462       12.04433012637486       25.26205191896284
N           20.78615944383723       20.91781295179123       18.87476998234776
O           20.67607219601347       23.09771782623170       18.29670905461142
C           13.92671955982725       12.33994947466379       25.04956582897244
N           21.92951046333368       22.05230855395976       15.85717082301341
O           17.53480893567734       21.01120330934696       17.85384403906782
C           14.23857933941596       13.23679034885486       24.04531574416191
N           22.84059251566371       19.05588055429605       12.52140026531898
O           21.44853475623141       20.87467278414171       21.42379469393847
C           13.21527351260851       13.80068055522693       23.28328618182656
N           27.70520160000898       20.39409628406910       10.94390231154315
O           15.25287068232381       21.16399731508987       21.98498660674358
C           13.59201984546790       14.73205894499375       22.20933187876326
N           16.20294938359412       18.74409762393067       18.79689214772569
C           13.32837464331296       13.01325916106073       20.40448960562155
C           14.52498834665219       12.06791916424545       20.49457921246838
C           14.07976525774347       16.01114125089518       22.34685471132062
C           14.21674123020438       16.74364018278557       23.64449531660227
C           13.27851793657863       17.95316164976606       23.87566829625241
C           13.27822951233585       18.28538200420747       25.37093161991026
C           11.85714116215969       17.63273527177572       23.41639055137571
C           13.75962203956565       19.19396952235164       23.10781317826406
C           15.79827719601720       20.31711441835720       22.65681276344178
C           17.30105200743208       20.20293386397624       22.86316045073151
C           20.23984113115922       20.95120584420385       21.22489388372916
C           19.67795214312624       20.90941940283489       19.80083758828859
C           21.18899110460434       21.98991950920446       18.18822671540465
C           22.33698576208528       21.69896069426860       17.21681086127382
C           23.63793688757045       22.38185269841388       17.66853889519202
C           24.77689886090144       22.08883795928486       16.69292782097491
C           24.00588484034642       21.85147533837163       19.05578133111092
C           21.38141122592311       21.06365736091745       15.13616125046297
C           21.27371890465364       21.22176327683246       13.60597799643078
C           20.61135411107799       20.01166461926285       12.94442100699646
C           21.50082213851637       18.76921415155061       12.98348458985763
C           23.41021902261987       18.30332983185500       11.56282882378565
C           24.77259693728922       18.63825030602753       11.24039143027449
C           25.91456057384530       18.82322935119092       10.90648224321929
C           27.30312971843177       19.04483904110032       10.51897581745640
C           26.78435078425591       21.44738143939569       10.57001764539051
C           29.05805803825873       20.76246597578582       10.57799249582110
C           28.13200288886195       17.99555650601841       11.28251231166391
C           27.40202985624025       18.78914719225603        9.00184953183545
C           23.48972855291279       20.14847679325685       13.20248694507811
C           22.67330542723601       21.42922572746538       13.01845506303479
C           21.91999648334630       23.46485299246731       15.53050247353102
C           18.81033265041816       19.68884366379192       19.49502718539123
C           18.21979766590514       19.78722802360076       18.07575074656606
C           17.26550973120752       18.60968460804816       17.83046529647144
C           15.43925579828677       19.95120417715862       18.56229173436348
C           16.37283343227080       21.16012564223787       18.65870216822844
C           19.82260767405905       21.31684043535819       23.60289201951065
C           19.17153999699395       20.27316963594876       24.50665358204285
C           17.65478405379346       20.35319620300711       24.35368082263231
C           14.49837714222289       16.41554184997341       21.04435598233321
C           14.22871883142069       15.33174081247344       20.16799272134612
C           14.59127927948420       15.38080321581126       18.82654647563485
C           15.22250963067099       16.51265493800594       18.35684064950010
C           15.50124420500716       17.59173532952115       19.20895542037682
C           15.14729729496151       17.53861031787967       20.54341752657920
F           20.47469571868066       22.33542035236285       13.26845784027619
H            9.90734311711408       15.00070192327479       24.55829506602766
H            8.75089833391119       14.81571034629949       23.23643207732128
H            9.21435644532153       13.41139995741872       24.22061357550416
H           11.05505361331649       14.94563076208775       22.31904322908132
H            9.90643213316003       14.44676081796869       20.38406693522341
H            9.48988189724349       12.73778026882101       20.07830889382150
H            8.51698714236203       13.69633548814184       21.21774787940919
H           12.28220080709437       11.34739760856289       26.02953780009376
H           14.69454495683996       11.88025978902434       25.65043649897531
H           15.26419586319266       13.50424530839425       23.83623465994846
H           12.49089079946025       12.61800980794052       20.98565913141377
H           13.00889315536057       13.11158071260637       19.36431192309135
H           14.26771366870332       11.10502252745041       20.06298691558310
H           15.37389747754324       12.48114028922304       19.95437871516452
H           14.81204184362097       11.91801372326747       21.53260141312302
H           14.02371640230803       16.02474208773323       24.44353589153596
H           15.24600983667703       17.09283216568953       23.74742107925925
H           12.98142049992181       17.41848646581716       25.95482517646954
H           14.27117300127462       18.59511671337588       25.68671812121010
H           12.57997267757703       19.09287160655116       25.57889242850566
H           11.47212631294008       16.78453349778034       23.97538146650968
H           11.20148686212584       18.48435509140661       23.57913367690405
H           11.84599758865919       17.38604895351984       22.35742185067575
H           13.24093355469017       20.09220224349424       23.45728267107026
H           13.57061457663396       19.09082434615500       22.03518635691710
H           17.60254284795781       19.20109500184355       22.53105028208893
H           17.62180856936149       22.10619555933355       22.18880056636456
H           19.10694816895127       21.82809893966957       19.62700815216711
H           21.30386391180224       20.05482132293006       18.80205656586671
H           22.50547417982459       20.61738687733278       17.19915919309155
H           23.46747468867334       23.45888892113066       17.74134626171967
H           24.65331477720828       22.61274255041712       15.75021604043560
H           25.72088327681088       22.40062898837651       17.13138469346393
H           24.83267900168689       21.02231265930792       16.48558096162611
H           23.19554548394537       21.99472414249389       19.76805067043637
H           24.23249175272742       20.78941600319217       19.00894673835136
H           24.88214648176266       22.37315304261016       19.42960337424829
H           19.67160806815113       19.78922005922714       13.45070813165351
H           20.39350815276858       20.29018168216450       11.91096016908869
H           21.08676008784909       17.99006159368715       12.34048505514074
H           21.54878669542414       18.39967815738624       14.01293865555808
H           25.77285914837062       21.17682827566429       10.86442812768234
H           27.07278444065004       22.35347108316755       11.10158148108138
H           26.78723193083659       21.66775396962831        9.49066127235277
H           29.16928402900875       20.98315581516453        9.50564255551259
H           29.32263317619081       21.66054067849477       11.13577266681849
H           29.75288435041035       19.97534497246353       10.85337688670758
H           29.12763612740932       17.90349239103736       10.85866599994842
H           28.20883928121605       18.28219416054144       12.32718619171328
H           27.64255904803702       17.02698956675849       11.21713980956334
H           28.43523822496534       18.86196049729306        8.67322903226009
H           27.03336203719496       17.79160403607639        8.77821699333379
H           26.79876454028351       19.50739068908909        8.45180503151513
H           23.55808266091061       19.90721466076274       14.26960779149005
H           24.49709032090065       20.27796944753974       12.80646010193860
H           22.56828493161077       21.65397779677892       11.95494089136427
H           23.17282191636798       22.26422830995740       13.50341433576487
H           21.33034715024345       23.65977450677032       14.64361487072462
H           21.46072257038012       23.99674656055970       16.36537770716601
H           22.93245401090631       23.83820035687564       15.38405440691901
H           19.41297202699639       18.78301866803774       19.55891957781085
H           17.99180665874357       19.62229396965396       20.20582715325125
H           19.02136795335237       19.78976830009837       17.32825684721595
H           17.78479596912751       17.66487542057495       17.98949075328667
H           16.90671458367551       18.65668234547965       16.78746079165753
H           14.96504616456870       19.93141059344955       17.56390071951742
H           14.66065619221488       20.04576648604459       19.32036091993624
H           16.64996473629842       21.32335025971848       19.70656956615002
H           15.87857073880746       22.05543378525145       18.27898355634789
H           20.90841545400358       21.22677830526087       23.59822733093899
H           19.54471512182196       22.32568210277435       23.92653306017224
H           19.45998558046530       20.45591816626635       25.54067918036354
H           19.52100753529460       19.28046901482920       24.21892992153906
H           17.29220889430027       21.31761186781252       24.71740304313900
H           17.16437523091845       19.56256447672945       24.91941839329596
H           14.40144914270244       14.55046418902939       18.16323321137291
H           15.52017944912825       16.56915128165783       17.32045003951967
H           15.43059915925787       18.36249836786348       21.17324484047789
