151
 energy: -221.321759348182 gnorm: 0.009834733465 xtb: 6.7.1 (edcfbbe)
C            9.48502505588034       15.31173814150734       23.26397481900264
N           10.76942236404644       12.83794189954671       23.64478279386659
O            9.82220070597787       14.13671841840170       21.12930782757548
C           10.47139863193037       14.76997519477395       22.23030177853185
N           13.16071039698161       14.68973924235710       20.35130026289321
O           16.08098902723912       18.46420530199771       23.60226881456460
C            9.15707326757676       15.01113740503680       20.24675136494478
N           18.48964129042810       20.81003642365562       22.35259982560370
O           25.48035790253896       16.82458448967905       13.76471981984215
C           11.36484662297060       13.70919649457941       22.84423053660527
N           19.88471870013005       20.91106220853199       22.32628543409360
O           22.43191425696116       20.05601407210101       17.03250786880049
C           11.48163293140927       11.87245900172683       24.19717660932049
N           20.70709907746339       21.60572561655272       18.83917611753017
O           19.87376791029003       23.62468275084328       18.21779844682403
C           12.84359006961914       11.71774490362437       23.98720150420973
N           21.15012468361254       21.56999845590392       15.98141717887857
O           17.33857522172367       21.57201717951981       18.41980342145766
C           13.47621980339641       12.62517218697872       23.15674258686641
N           24.00869489055945       18.51729591930770       14.09956563107349
O           21.79691405004603       21.15896719393567       21.18122738564198
C           12.73735126388149       13.64595935033123       22.56135387485879
N           28.39035274034838       19.16151737310005       10.44761651146651
O           15.84610017515961       20.60684327049213       22.98680618315079
C           13.41333143031049       14.62365104930619       21.70400068592321
N           16.24987879947689       19.09869227132449       19.15917376672798
C           12.48688419610380       13.67657016571668       19.57678729264228
C           13.45576938775629       12.57963025798062       19.13755916197325
C           14.31280776053078       15.59795291797481       22.07581360492127
C           14.92390595031006       15.79179920133866       23.42830339052549
C           14.34553630746202       16.91955521257602       24.31297402773126
C           14.97238855882322       16.80878807011296       25.70648305809209
C           12.82772549317418       16.77504690178366       24.42458805975260
C           14.65792604212529       18.30535985466910       23.73824847316586
C           16.53621236066964       19.63395336914664       23.19744169102670
C           18.05172318105257       19.61156633220150       23.06295239586818
C           20.57192875778264       21.09543614762928       21.18646944637315
C           19.77431990364799       21.28482539906556       19.89497786443937
C           20.66080828138195       22.69632290728074       18.06715040355571
C           21.65702393461869       22.59891563414363       16.89683974063208
C           21.92314801544106       23.93440762580346       16.19203237865120
C           22.85172118373718       23.73624095742051       14.99307511624816
C           22.56826524770085       24.89892288439626       17.18555957233172
C           21.65602488925206       20.33596528589949       16.11695045395329
C           21.38430439754994       19.27652689499305       15.03141111555877
C           21.99624000315850       17.92233062391094       15.39250622090556
C           23.52175244167723       17.94700073200186       15.33731236086356
C           25.02116384816983       17.92259026205884       13.44238282322354
C           25.59593476723906       18.65184137941871       12.34136763255766
C           26.26724592898531       19.13169520251377       11.46285270030515
C           27.05474631918046       19.77241771013859       10.41136964263800
C           29.07993547809866       19.33287617676095       11.71114268372420
C           29.26280064386466       19.49644497682495        9.34136529091351
C           26.35693025741953       19.46131691410866        9.07740281569641
C           27.04441701878713       21.29682091329007       10.65400603632974
C           23.46676969345481       19.81144818168394       13.76292156353306
C           21.93944146409751       19.73585315484489       13.68135368916917
C           19.98401806245159       21.94803586116610       15.20307050735458
C           18.96265343949158       20.05118693912927       19.47952904378748
C           18.07143036313056       20.36772931049358       18.26489625874592
C           17.10104090208587       19.20905239543814       17.99647001566334
C           15.45130194416487       20.30287189040006       19.32062214536906
C           16.38100794111035       21.50678570932845       19.46527795342882
C           20.56990683450731       20.84763746882178       23.61087366507157
C           20.20002148778234       19.55283856399103       24.32882150308215
C           18.68177490841560       19.47607951045082       24.46239551501603
C           14.62567778713929       16.31522489184621       20.88412852380687
C           13.90381684059618       15.70795017583308       19.82668857139261
C           14.00828484541492       16.17116034443393       18.51923096846128
C           14.79426236262434       17.27781204908968       18.27857621643581
C           15.49088189301005       17.90673687374008       19.32046137667115
C           15.43628474035234       17.41030297450493       20.60594668148772
F           19.99795322699600       19.06014135634867       14.91410874430542
H           10.03486796338394       15.73453934935011       24.09901148339697
H            8.86021143547147       16.08637009334337       22.82941724077445
H            8.86301525815498       14.49621344217291       23.62125439746766
H           11.09557784693890       15.59230423438236       21.84400149393903
H            8.76201435963145       14.37906964833387       19.45436271846946
H            8.33461847801962       15.53719690725616       20.73518192836930
H            9.85327004687007       15.74662309843742       19.82340012125327
H           10.92836834245320       11.19586593050717       24.83485912680867
H           13.38670574914062       10.91110077810845       24.45175923836559
H           14.53432724205758       12.54925992931879       22.95169861873498
H           11.68219943143157       13.24985508470200       20.17751278313469
H           12.04696895028630       14.15739388869062       18.70149778915808
H           12.93076495234275       11.84832699938839       18.53058897696248
H           14.26870799253214       13.00537587469218       18.55460836502737
H           13.87532126522556       12.07584758232208       20.00446296160197
H           14.80923444956077       14.86071905225517       23.98785428822815
H           15.99163214384415       15.98215455751693       23.29744388819792
H           14.69154336972006       15.86700452933954       26.17104891566341
H           16.05580476800716       16.85783964088270       25.64285412809345
H           14.62778575109003       17.62210185660298       26.34247239297115
H           12.57990671374146       15.77420584277882       24.77288546874456
H           12.42116449394467       17.50148996569440       25.12724096937516
H           12.35523041202812       16.92996406786349       23.45691279327518
H           14.28397041371079       19.09366632911952       24.39982805729086
H           14.20004556777029       18.43883039261410       22.75425548854499
H           18.33533277637766       18.74098091074102       22.46022042376330
H           18.07517489946332       21.63353202867969       22.79156756874250
H           19.10766737536202       22.14527548234070       20.01137785429199
H           21.44962858619897       20.93184442273269       18.68519797266935
H           22.60532388121841       22.21955198165976       17.29408023119469
H           20.97181406529879       24.36336549492214       15.86743639204867
H           23.03538464233904       24.69191751484085       14.51025075255764
H           23.80538824445443       23.33133664864138       15.32532187536162
H           22.43004864735386       23.05701113259281       14.25849628051816
H           23.51000677358028       24.49454968662706       17.55110798819551
H           22.76311534174181       25.85243223416346       16.70428288373441
H           21.91062117436458       25.06796489770514       18.03341104501990
H           21.68572647192228       17.63677631386161       16.39773695427123
H           21.60389329523535       17.19051862189655       14.68416154472560
H           23.91546146063458       16.93228346022228       15.41241972860266
H           23.90143017473190       18.53850955578356       16.17726074505449
H           29.48791192599608       20.34841932528298       11.84871294258202
H           28.40129861650156       19.10624586614818       12.53535847776646
H           29.90875010295959       18.62453627079844       11.74622447623878
H           30.17885534665264       18.91943159568460        9.45819582896662
H           28.80422888994186       19.21127640688152        8.39992373918248
H           29.53635256552168       20.56168302476570        9.30598906948459
H           26.49046714422868       18.41252036310688        8.82781046797809
H           25.29374353352010       19.66654972196037        9.16820661962529
H           26.76070996661127       20.08112501548151        8.28205420480072
H           27.66767849261920       21.79105340582932        9.91299559046911
H           26.03069160321744       21.67660243232806       10.56528972138817
H           27.41722036765398       21.53164923215623       11.64760850769088
H           23.75626096915834       20.53463413608618       14.53546908698859
H           23.88194376734615       20.12999584774645       12.80599008187464
H           21.64234171370412       19.00678007472841       12.92617959498940
H           21.53468583467350       20.70733514314309       13.40595903133821
H           19.32605495479316       22.54161943742208       15.84107782465204
H           20.26502198684296       22.55190279531463       14.33937058856196
H           19.43147608228693       21.07768904944476       14.86741746549892
H           19.64326073326041       19.24288079193467       19.21113238679229
H           18.32580095908749       19.72916945289736       20.29792945184941
H           18.69211574229552       20.54165889042762       17.38078112166547
H           17.64931169950984       18.27715967336157       17.85933523730790
H           16.54179975555788       19.43727919997868       17.07221808571012
H           14.77590056140122       20.45265967161079       18.45874790341676
H           14.85095849419648       20.21249863936446       20.22710533113353
H           16.87606075142838       21.45924366265919       20.44207291172560
H           15.81660552992830       22.43751745158296       19.39385674383794
H           21.63894842378482       20.90764967812937       23.40948192926217
H           20.26566569695520       21.71327585266254       24.20950664535474
H           20.66997561032999       19.53537623891417       25.31074534560570
H           20.56808723234889       18.70426654509023       23.75205856751350
H           18.32444739969841       20.28914903927248       25.09923759498093
H           18.37598343179014       18.52927113526093       24.90404843139058
H           13.47734469393780       15.69441235985916       17.70931424285898
H           14.87058676182959       17.66872571956504       17.27447056527431
H           16.02424088830845       17.89067001222605       21.36672386203643
