151
 energy: -221.318767520438 gnorm: 0.008915128837 xtb: 6.7.1 (edcfbbe)
C            9.78155949045551       14.30530712424102       23.51537640600356
N           11.54035157542148       12.15841880726353       23.97020375454176
O           10.23485060059391       13.06815533903759       21.44102295727761
C           10.80538334781502       13.88838915604349       22.46017953022713
N           13.46031675512219       14.24188970631106       20.45111019096923
O           15.69178011189563       18.62075691610163       23.39777373189131
C            9.39151766785939       13.75334122828978       20.54233981027003
N           17.90583192458934       21.10807897949235       22.11015529137282
O           22.90899633753210       17.75956245343512       11.92452966005330
C           11.91786599095662       13.06961007857941       23.08554595888305
N           19.28817502624258       21.32241537050288       22.14989255395893
O           23.49691116957269       21.75926990603955       16.23467126680127
C           12.45404452111581       11.40708109273361       24.55808632563013
N           20.22355224533079       21.80976508750256       18.67041605006132
O           20.15864810965352       23.97523965061952       19.28908907257140
C           13.81087032115576       11.52176224068795       24.29943000350018
N           21.51734293837051       22.82567104089379       16.31987603546936
O           16.93454012241440       21.40864851736201       18.08288071641848
C           14.21474287201961       12.47017698454813       23.37731231461542
N           23.47703177061215       19.47965331449450       13.28841758904989
O           21.24831399947255       21.50885851079181       21.06806703845230
C           13.26288752597427       13.26680794790692       22.74254869061931
N           27.65549335565716       17.22773844425418        9.97346909759057
O           15.23808013736936       20.71840539269009       22.74566000738549
C           13.71379702275796       14.30123958748466       21.80378645557111
N           15.99188355354687       18.91917245583186       18.95380258924669
C           12.92382881364126       13.10332861559350       19.74792471194359
C           14.03031677581622       12.13437619514995       19.33549153779652
C           14.44574326989702       15.42643189641055       22.10834103837454
C           14.95908854729454       15.82626539246449       23.45498709488117
C           14.16165644003763       16.92411394123848       24.19732244030418
C           14.71587688484681       17.04918817651600       25.61876369373196
C           12.67940386610604       16.56213537803668       24.25219972284601
C           14.30005605218252       18.27872900821799       23.49145097589233
C           16.02465120399235       19.83205344371308       22.99599206345746
C           17.53617643936096       19.97506136698778       22.95288399460137
C           20.02475813504875       21.38501325316770       21.03157469869626
C           19.27975574533575       21.40188168538743       19.69063898622214
C           20.66520668517714       23.07776775511246       18.63166792869827
C           21.83357791972042       23.29185610897091       17.66868407339033
C           22.35245418094029       24.74717688582580       17.68235536031348
C           21.37363870066369       25.75138408763986       17.07897963933204
C           23.69909242441217       24.83963968592088       16.96875708522699
C           22.49701386976594       22.18586500874363       15.65899519889680
C           22.40347736686050       22.02770413743786       14.12528222175088
C           21.50995476790699       20.87915083487188       13.65007812813178
C           22.18048035939218       19.53379928327278       13.92436674887593
C           23.73489235571586       18.58792339186309       12.31537051380687
C           25.06792013647528       18.62581518287569       11.76973473361798
C           26.14677522454404       18.53546566476091       11.24385160785244
C           27.49547374993130       18.50331357296072       10.68249078588348
C           27.42102595987229       16.06163627422945       10.80004168043486
C           28.88729097813584       17.08621747889454        9.22586146015761
C           27.58786418068854       19.67838619168135        9.69461165103954
C           28.49100986143566       18.72425134003301       11.84174712851138
C           24.39530400982668       20.49412010158435       13.74108464316471
C           23.80255479854898       21.88565903039634       13.51230976813741
C           20.16899858083023       23.04596406507158       15.82996823796222
C           18.62365423573322       20.08268147524051       19.29923900547459
C           17.75628992635436       20.25410247624199       18.03532406605869
C           16.88504874284963       19.00888528050899       17.81971798642328
C           15.09797454387670       20.06157288700854       18.98292407243646
C           15.93169071423677       21.33886381779302       19.08316131634163
C           19.88841132632163       21.50989381562431       23.46474748038218
C           19.56889174079846       20.31634437376054       24.35879775700623
C           18.05736764995827       20.11066326312816       24.39686880114887
C           14.66463423674156       16.10124530221549       20.87160826747856
C           14.04797122410376       15.32378967305030       19.85871917172712
C           14.10932066954437       15.70848377115600       18.52280776635887
C           14.75134048057542       16.88726153319041       18.20656165222441
C           15.35296289880774       17.67343123967012       19.20004738427179
C           15.33504579949836       17.26707979026713       20.51831504504676
F           21.88569358592387       23.23144500946387       13.60282523835792
H           10.28532524120599       14.82269203957020       24.32485050160309
H            9.03695361828363       14.97059023402851       23.08740748524157
H            9.29632707043874       13.41674889739054       23.90732890026859
H           11.23975269430255       14.78349824203123       21.98472332952930
H            8.49456149498497       14.13607603977653       21.03580237319535
H            9.92560942120934       14.58506041022423       20.06713318733751
H            9.10232403930181       13.02170344527575       19.79008044542243
H           12.07316678739202       10.68609515026631       25.26836052495764
H           14.52504387229787       10.89090054549310       24.80228884577101
H           15.26027171094642       12.59603989025711       23.13430113951980
H           12.20426800944437       12.59615195002468       20.39407406860700
H           12.39482893704107       13.46687292937685       18.86320883363614
H           14.55302634589526       11.76622243517736       20.21448853214016
H           13.60254223244280       11.28939681200585       18.80483735833568
H           14.74933637772948       12.63042453446868       18.68830076597466
H           14.96482151858463       14.94236974912891       24.09542838472982
H           15.98690578298054       16.17636774074098       23.34492394280639
H           14.17764378373094       17.81694415478383       26.16900328646905
H           14.60949265086981       16.10835114765672       26.15046311964964
H           15.76853238019237       17.31594706308269       25.59119434925046
H           12.55640480788183       15.59104917962242       24.72280208512541
H           12.12484012416683       17.29993157279456       24.82452304589496
H           12.25947689196754       16.51583808694173       23.25160438302811
H           13.77919729957117       19.06713239005086       24.04499810641918
H           13.88514898029675       18.23577769500036       22.48021742254641
H           17.96138206399800       19.07105259027154       22.50269430101765
H           17.40634172020050       21.94302262948275       22.42479933319414
H           18.52426950550734       22.19213282146649       19.75184986554465
H           20.80563474975413       21.08493463799481       18.27804145937217
H           22.65132522798156       22.65664256560968       18.03668715281672
H           22.49037507393191       24.99264303654703       18.74129795872184
H           20.42172720956756       25.71414243210161       17.60017550323604
H           21.77800828805448       26.75368365734702       17.18477682675609
H           21.22132891442524       25.55715641199459       16.02288519499180
H           24.11768808447137       25.83503142824507       17.08636522791926
H           24.40441478258636       24.11598386063914       17.36681250813930
H           23.57766102981559       24.64558304548132       15.90577554355473
H           20.53483345938770       20.91449415621364       14.13153705440544
H           21.36478726570984       21.00081675273888       12.57424296970431
H           21.57682847729345       18.71844472822122       13.52165811998829
H           22.31611146805655       19.39380990985737       15.00208388762282
H           27.28514327314337       15.20012886622999       10.14656470084530
H           28.25211427335202       15.84201209778942       11.48798372842185
H           26.50981486085479       16.19957026117681       11.37915716027562
H           29.78548110368734       17.07144196441504        9.86206254564394
H           28.84180788421832       16.14018028547552        8.68776574332921
H           28.97898494335569       17.88577623689592        8.49579767558605
H           28.62243841590024       19.87514030787260        9.42867681934058
H           27.01833250870617       19.44889244529824        8.79809522772159
H           27.17560378829143       20.57333834093530       10.15391901934806
H           29.50827211299905       18.73720922789999       11.45997597019458
H           28.28669634027682       19.67689527118167       12.32298266101817
H           28.39875307030474       17.93488501834348       12.58385255328740
H           24.58038316890457       20.35861128641156       14.81105370179519
H           25.33517298083235       20.40061935994169       13.19696263083636
H           23.70615519287969       22.07755851192507       12.44206081730555
H           24.46523352675748       22.63490662347612       13.94481542518197
H           19.62279568773513       22.10193790106515       15.78518562598551
H           19.64708498670658       23.69524387470278       16.52631662110114
H           20.15888516292621       23.51328511845669       14.84880701473660
H           19.38654496771509       19.33039378011659       19.10348946492853
H           17.98509256132824       19.73637872433592       20.10786234069800
H           18.39347999515012       20.42236118508404       17.16187428241572
H           17.50162163406350       18.11164401812380       17.77871254485978
H           16.34748742349628       19.12161788647750       16.86185273405925
H           14.45855408484903       20.09859968776605       18.08326235640442
H           14.46136042642549       19.99635680328366       19.86458533731500
H           16.37922462466673       21.38818887252932       20.08311614950836
H           15.30538565895171       22.21865287155222       18.92615212400082
H           20.96005013382626       21.62530104761782       23.31286799258793
H           19.48719494360437       22.43114946518382       23.89998357846601
H           19.95239242689791       20.49897708872940       25.36180581227644
H           20.05402394997818       19.42576926306682       23.95821412701716
H           17.57566445127559       20.96875098527564       24.87162570456830
H           17.80306247699864       19.21416350395365       24.95940481403117
H           13.65908837418588       15.10896633296080       17.74574496984465
H           14.79326017710014       17.20857384681152       17.17625208554351
H           15.85258646048456       17.86605116177158       21.24616895199267
