151
 energy: -221.324937001253 gnorm: 0.008677579900 xtb: 6.7.1 (edcfbbe)
C            9.13376389131294       15.02492743276299       22.67310768946067
N           10.62264158208907       12.98803917802251       23.94583795680926
O            9.91350710866285       13.29009128416173       21.11374821318246
C           10.31855111453204       14.34749379762852       21.98525734081135
N           13.46652583228178       14.30778472211566       20.63302154884401
O           15.21163767525742       19.09955927815204       23.20499601766274
C            9.32332179282694       13.71137462480473       19.90249226667978
N           17.85332995703179       21.29987588065430       22.33325633678598
O           24.70442756516991       16.93665386499790       12.29591184027814
C           11.23277692364039       13.69351829140908       23.00372926021211
N           19.16513981052202       21.52620085748853       22.76187001107913
O           23.34072305082796       19.76264857962764       16.97525241420699
C           11.34022353982742       12.34428562745458       24.84744154182727
N           21.08676248750194       21.14139390011398       19.68461995262924
O           20.77315910334439       23.29844958302031       19.10798237351711
C           12.72593579300519       12.36345674742903       24.86541567908649
N           22.08579019675929       21.62045131211529       16.79995339941661
O           18.46483122108640       20.44799211275189       18.07105784157963
C           13.37194476352563       13.11047590712480       23.89887734264922
N           24.28412016994310       18.78778187795177       13.53810466988271
O           21.36453035566798       21.53637636418522       22.30274046849442
C           12.62821082484195       13.79612069131894       22.93718120980040
N           26.84986734903082       19.11784307346744        8.33170592376954
O           15.08304366328332       21.12504057955360       22.24387834104458
C           13.36502300207157       14.62078997645852       21.97086148380013
N           16.88147171287039       18.38658428338130       19.10964801947681
C           12.97152760859539       13.10230931977825       20.01576022881424
C           13.97316012636067       11.95548896964367       20.14201483686411
C           14.12048077403005       15.73368962095654       22.26165097830536
C           14.28010871213891       16.39298802404041       23.59282329052342
C           13.39093249940414       17.63714332956655       23.82856623117122
C           13.51805135316931       18.05497915427551       25.29590140928915
C           11.93183296154184       17.31495183362568       23.51384642913123
C           13.83356542753181       18.80108630663513       22.93566814221880
C           15.70719716061787       20.25326998649304       22.80822908552949
C           17.16820615995838       20.36151090144470       23.21452258267805
C           20.20818866278756       21.36115675483149       21.93459483539667
C           19.88359360422297       21.02647083116464       20.47559707228230
C           21.41509038261721       22.25891753877694       19.03098498930413
C           22.60906231975310       22.08351892242407       18.08664804455523
C           23.44681724475550       23.36660762223906       17.97150136683572
C           24.50163885869104       23.22779923038840       16.87691566650430
C           24.10671362316954       23.62205922077755       19.32372777410555
C           22.52352657163249       20.43886158501968       16.34682946102001
C           22.04784631037039       19.92782434043149       14.97351495769733
C           22.24748707158995       18.41360780925151       14.82794146013801
C           23.71431714896892       18.03780602702822       14.63263806580741
C           24.71735386635306       18.16466204153683       12.42971758030713
C           25.25367480896536       19.00105597637077       11.38759887581101
C           25.76044294031517       19.46282476291481       10.39767090573777
C           26.40854200477822       20.14640060677472        9.28220185649450
C           27.69300235907026       18.09125785317202        8.90936788475154
C           27.43069742208736       19.61676713509481        7.10294421945350
C           25.35761609673675       21.05760086096107        8.62747035601213
C           27.54762979604633       21.00701101589036        9.87247645930379
C           24.21651534645382       20.21625221640344       13.71003329923458
C           22.75648575201314       20.66201175462409       13.82634138632050
C           20.99952262219121       22.39228860986642       16.22772223633865
C           19.27494819552356       19.63942151379405       20.25997682702026
C           19.05471111337080       19.35603722856614       18.76027415652482
C           18.19917585198249       18.09196082457455       18.58759485874516
C           16.25858789079046       19.43401701105542       18.32275136799527
C           17.11854374518944       20.69014987983700       18.45015354041395
C           19.34546681799938       21.96930723436675       24.13816696091189
C           18.68778310804872       20.97623483829612       25.09268757803656
C           17.22613157667010       20.78602147458790       24.69574713189137
C           14.73710201303156       16.12534512088801       21.03826893659959
C           14.31168707468133       15.20732314597181       20.04516410627942
C           14.75050071161606       15.32234324717732       18.72969263587483
C           15.59809080698595       16.36274839047048       18.41093013475956
C           16.03340029177895       17.27039673086485       19.38710346040462
C           15.62313544739252       17.14261055157651       20.69634605022805
F           20.66579518300573       20.14297427388773       14.83581088188560
H            9.48804298867563       15.85115035259292       23.28098454146203
H            8.43326847199703       15.41070343432998       21.93791834531359
H            8.63050473673999       14.30047617277481       23.30566033271366
H           10.88719942252287       15.08702818448489       21.39915451729146
H            9.12735815952427       12.80230035930485       19.34049766677088
H            8.38347248411098       14.24167876359092       20.06818148329374
H           10.00856299054919       14.35522747276047       19.33885764152685
H           10.77171500711621       11.79410885478125       25.58483172539492
H           13.27821466713002       11.81604064590211       25.60959816954966
H           14.45083317717227       13.16679238257745       23.86768927170864
H           12.02986233541818       12.81954383788007       20.49135892303976
H           12.77985649906537       13.31523042088877       18.96143758401666
H           14.92822202199464       12.23094975734785       19.70040991847657
H           14.13231661874268       11.70789338815367       21.18859080788664
H           13.58980051796852       11.07656737848049       19.63262437244921
H           14.04116663780943       15.66800094910669       24.37308301984327
H           15.32142591007677       16.69604142414882       23.71263118861225
H           12.94939977477746       18.96282935734225       25.48310683999487
H           13.13650940770266       17.27198130763519       25.94482462847714
H           14.55829939192596       18.24091351197227       25.54875605802637
H           11.62920050527525       16.42736765824518       24.06098114223952
H           11.28647193351546       18.14034572224685       23.79900707734670
H           11.80105452794924       17.12470503134271       22.45212883459682
H           13.23416204250428       19.69700144937955       23.12663770764388
H           13.74016844406924       18.54290230750808       21.87562677147351
H           17.64390439637633       19.38164672116008       23.10420811366645
H           17.32611233609120       22.17433177855331       22.29732384340363
H           19.20023624190570       21.80116918371448       20.11027672924149
H           21.72113670347867       20.35786855864323       19.69437261134505
H           23.25621066539399       21.28147727564610       18.45659395210385
H           22.78204187504928       24.20543402297303       17.74212799168183
H           24.03924820593358       23.12217640870671       15.89916718598162
H           25.13965255014431       24.10637477402037       16.86226063335284
H           25.11982792324275       22.35269192079788       17.06509356085569
H           23.35648904704016       23.71286917075592       20.10735841387557
H           24.76954764567552       22.80224962296899       19.57924717779356
H           24.68413816746262       24.53845698221228       19.29519621586543
H           21.85786208399441       17.90903069379743       15.71094833696301
H           21.66681351383858       18.09574552395580       13.95973518857555
H           23.80306713272422       16.97611193508335       14.39666142465504
H           24.27159215390479       18.25953598559524       15.54616321309336
H           28.72960156971725       18.42005452066606        9.06794361869177
H           27.27966065233251       17.76307407472060        9.85934339545291
H           27.70732174797667       17.23856656090204        8.23430808202948
H           26.74454974792509       20.29902416874501        6.61151740467716
H           28.39926209491749       20.11772839635730        7.25084510564710
H           27.59389413456649       18.76514459461029        6.44193797469456
H           24.65198497335513       20.45592117008592        8.06209419824327
H           24.81721129406156       21.60182856140447        9.39759653561877
H           25.83208020767412       21.77769633122338        7.96783421177735
H           28.07948965087708       21.51853241048726        9.07579189096551
H           27.13029876378921       21.74923108090436       10.54641083316548
H           28.24547079506430       20.38812634554404       10.42965723915393
H           24.75490541486349       20.48216549058520       14.62565762500241
H           24.69039361458350       20.70450968028615       12.85762315561029
H           22.22475252096855       20.41621719307994       12.90613333090171
H           22.71781875622014       21.73961231304973       13.97261305784899
H           20.96162059883848       23.35470452866575       16.72923026618206
H           21.13771370473329       22.54882697868143       15.16065949988199
H           20.04404036793789       21.88645050749169       16.39250523129170
H           19.94216196928241       18.87640824260290       20.66123853474295
H           18.31481634523620       19.57962719080222       20.76667732495174
H           20.01773609151525       19.22039990153733       18.25480268942675
H           18.63179128326561       17.26595329539176       19.15211571954567
H           18.18114099750033       17.82183030333806       17.51594407250603
H           16.16831398941413       19.15455522789350       17.25862933919058
H           15.26384630901187       19.63465431791505       18.72358182186874
H           17.06919201325906       21.05253759884594       19.48435685887858
H           16.76831404912513       21.47311114792718       17.77630263891963
H           20.41837314577369       22.04791334135125       24.31280708400750
H           18.88944703278725       22.95969741034195       24.24707872128263
H           18.75880814721212       21.35240833113851       26.11173415348986
H           19.21037733326320       20.01991094301563       25.03790149781799
H           16.67610553169913       21.72190634565032       24.82390051148306
H           16.75472168543665       20.01950405307344       25.31002642200360
H           14.43869323845934       14.62455371645537       17.96785375119964
H           15.93902526238957       16.47813253370078       17.39240170443153
H           16.00308673642910       17.83239605165827       21.42972759727164
