151
 energy: -221.311189547591 gnorm: 0.003651317212 xtb: 6.7.1 (edcfbbe)
C            9.41509416916691       15.94001619070014       24.64770744452607
N           10.32129882147413       13.29309060341875       24.63541217740664
O            9.10289658520337       14.96390566034384       22.42005306313312
C           10.06806049980381       15.35169168753809       23.39775436911053
N           12.18602602698582       14.92429892810005       20.93359026940759
O           16.23672453577932       18.15806179496358       23.56457050312070
C            8.59577756710511       16.03059155445909       21.65071874305361
N           18.66594731675503       19.98299396885081       21.71744842238526
O           26.83563801561235       17.20835472993569       13.64715237543247
C           10.86831677460854       14.11067834371096       23.74921767943681
N           20.00968062946083       19.72738367095922       21.40463601058769
O           22.72908202602731       19.57387511418698       16.23472982535298
C           10.97551655138415       12.20621311564045       25.00570317281575
N           20.32558394024380       20.59173328844191       17.90418746156289
O           19.47681724832539       22.64694696374451       17.48152806720022
C           12.23211140611825       11.87612420468223       24.52381723780703
N           21.19724231644689       20.83029798967064       15.18358294825189
O           16.93133366475881       21.07433892511148       18.04898363223561
C           12.80868599912731       12.71800017798420       23.58945816026177
N           25.00148360151846       18.54205388417074       13.68696104818574
O           21.63819634746160       19.49967060187990       19.88760413374120
C           12.12223686467361       13.85579634883958       23.17189193873467
N           29.59734441178522       21.18621483865371       11.53883243085934
O           16.10478639986918       20.26356447055931       22.80326904884091
C           12.72954635570318       14.75823879004501       22.18863455701586
N           15.60310573007344       18.83244024599456       19.05959417633234
C           11.21301269857116       14.05274111071921       20.32314727462859
C           11.88958731293793       12.88081944312725       19.61419118022855
C           13.83139709141234       15.56786803744976       22.34812805583831
C           14.74908819014702       15.63089180201152       23.52769547767047
C           14.50519131569238       16.77656308032962       24.53615851321799
C           15.40301070694241       16.54697903746322       25.75527154571629
C           13.04172020977122       16.80481967059193       24.97287608264137
C           14.84562756597050       18.13637619525071       23.91430339434701
C           16.73261099862918       19.25161925854339       23.01883306098209
C           18.22128548621025       19.07719480551071       22.76314894339236
C           20.47324468754077       19.79487739968248       20.15235366979279
C           19.51953384221054       20.29488564292255       19.06633741021563
C           20.29471320311357       21.76654798565806       17.26217215151114
C           21.39111162583609       21.87188006296070       16.19084554664947
C           21.49361339864161       23.27965467418324       15.58166075347652
C           22.48757715918044       23.30762766571875       14.42252719742699
C           21.94344474987249       24.25688115277453       16.66771276485252
C           21.99684203610142       19.75479588568939       15.26046865638446
C           22.14314758693846       18.81836744685506       14.04627451195924
C           22.87043906345353       17.51567466986448       14.39005605125998
C           24.35033976963008       17.73215933296206       14.69583152312387
C           26.25483864705464       18.23910578417660       13.30193053978384
C           26.90338787609995       19.19268125290110       12.43867861007918
C           27.62116643552412       19.89566226072686       11.77383305982977
C           28.35486422185726       20.78010976532777       10.87036468568524
C           29.39960028593182       21.81013933162161       12.83117398033007
C           30.50432332482022       21.97693528248610       10.73316661257625
C           28.67255610244257       19.93257808333163        9.62640418038471
C           27.42286023651313       21.94744819845709       10.48305523647987
C           24.35108434167595       19.79702348258667       13.39029078254890
C           22.91234927798901       19.54851521112300       12.93976765717084
C           20.04046227704901       20.98111047773547       14.32123028056226
C           18.44574649303651       19.24616158489909       18.75306580651093
C           17.38793714806340       19.76517767754637       17.76153916599418
C           16.19437415493632       18.79619803136479       17.73988212721429
C           15.06730441199961       20.15452871989956       19.33606372372483
C           16.20638240328501       21.16787785036321       19.26389845166122
C           20.90072768528673       19.31860358851990       22.49038991593055
C           20.36896819893438       19.87227928900414       23.80432306865745
C           18.97700563916734       19.29813216879180       24.09811295114557
C           13.97514938119250       16.28274481861527       21.12214983170218
C           12.94012218933985       15.84167430739211       20.25916015607320
C           12.81014732818187       16.34566092565540       18.96985290900966
C           13.69140067985374       17.32221677525135       18.55972162929981
C           14.70944340490426       17.78142801623449       19.40735235630455
C           14.87055161299922       17.24686044556048       20.66912487250762
F           20.88849699466403       18.44487655923931       13.54128941516409
H           10.18248263054296       16.21669362324745       25.36385100314133
H            8.83481868866205       16.82307459463224       24.39614562959028
H            8.76492182692216       15.19242156310381       25.09011441907570
H           10.74393237391619       16.09248453376631       22.94142343306908
H            8.08046138682926       16.77077421027152       22.26727043335896
H            9.40032888532513       16.52727077338599       21.09493564809612
H            7.88780569335099       15.58604744104153       20.95515501187451
H           10.46519294174965       11.58408608993625       25.72770186839180
H           12.73816040394101       10.98854193696413       24.86649838085750
H           13.78036939658209       12.49907059277555       23.17158947704683
H           10.53396223907033       13.68621712729951       21.09536497776708
H           10.63145050560478       14.63679824162035       19.60603826371838
H           12.45977981946699       12.28716799545450       20.32587696010728
H           11.13907687571913       12.24574747095222       19.15252669885578
H           12.56771436944886       13.24420019214995       18.84470580195633
H           14.66764748886338       14.69282272112305       24.07938109363157
H           15.77269977901327       15.72258019922146       23.15947838677303
H           15.29501014059795       17.36329486645785       26.46458463659638
H           15.12999231654531       15.62054647500041       26.25205947023643
H           16.44446653026035       16.48798680905301       25.45162448196531
H           12.73240548509193       15.81415012756309       25.29636313665566
H           12.90138921909302       17.49962782812182       25.79636911333025
H           12.40496551026960       17.11295495496714       24.14842623853682
H           14.65021209322732       18.94839215831010       24.62177959290973
H           14.25345423531526       18.31803294373588       23.01291566045355
H           18.38503422580898       18.05775111235161       22.40148084265455
H           18.53145551876733       20.94984512340208       22.01704261286179
H           19.04087892510145       21.22902206700703       19.37628855884200
H           21.12588407389139       19.97878588535654       17.77790202321047
H           22.34039739377830       21.63969163900262       16.68906360166840
H           20.50477028248148       23.59021620934003       15.23373252255128
H           23.44489495560474       22.89966226039396       14.73896819304634
H           22.13052027464700       22.73642791141220       13.57201999581871
H           22.64091431232875       24.33323105911181       14.09989007443093
H           21.99851079642989       25.26310958498626       16.26203768570102
H           21.23630621635856       24.25998386879682       17.49250710182354
H           22.92445742546756       23.97975482466414       17.04766591949982
H           22.40017912432909       17.05087749109650       15.25666519122926
H           22.75456379055184       16.85136878161153       13.53175488907158
H           24.87058445409702       16.77293054850038       14.73451868887214
H           24.44679120785335       18.22614159779707       15.66871112903983
H           30.35547587204755       21.82169177849186       13.35522633835332
H           29.03858766053498       22.84813690646815       12.75974484109637
H           28.69137322105086       21.22714058429876       13.41669946389896
H           30.14928006106371       23.00561252123252       10.56656747967518
H           31.45642456731090       22.03154788402735       11.26140786311634
H           30.67696828856542       21.49814848325768        9.77499867289052
H           29.45562907682928       19.21780236427502        9.86307305877009
H           27.78237613443780       19.38700231634173        9.32417279101069
H           28.98828112625379       20.55926592784552        8.79766607081367
H           26.51142455499773       21.55313101823551       10.04167378627029
H           27.15898222295944       22.53609583895503       11.35777853682360
H           27.91357953683921       22.58929991373569        9.75533383694595
H           24.35191806787037       20.42258386869517       14.29175279789576
H           24.90974741404391       20.30809080386389       12.60526917764608
H           22.90464790160610       18.91586020966016       12.05082223744175
H           22.42999167571296       20.49411025263661       12.69962647844656
H           19.54521293998192       20.02736264400277       14.16532895054088
H           19.33774091042402       21.64874702896430       14.81527624040673
H           20.30637569013748       21.40302568775011       13.35194807661826
H           18.91858248290560       18.36415359701530       18.32094212512167
H           17.94020785796276       18.96688394702229       19.67609894315931
H           17.82388598113250       19.85443476980967       16.76084654024929
H           16.53367288923979       17.78206608108379       17.52852380377061
H           15.49614429034933       19.11883105822812       16.94817502853234
H           14.27457864654513       20.42448446849468       18.61523365735648
H           14.64854715734431       20.16746210024259       20.34434311652856
H           16.86750720871126       21.01201423449575       20.12325503911812
H           15.81898406545688       22.18743999289482       19.28571113204328
H           20.96285245416625       18.22620403479527       22.52327729588283
H           21.89422415635281       19.70550403855943       22.25561982563899
H           20.32326775400135       20.96033274023585       23.73523334623651
H           21.05719920866414       19.61999274814607       24.60800271294070
H           18.42175551757743       19.99371708797450       24.72954767634863
H           19.05199851951654       18.34834870915935       24.62405815760291
H           12.03239334358229       16.00018391869593       18.30581509672119
H           13.59525297996578       17.74624521460724       17.57117879912285
H           15.68987949387444       17.59586344950341       21.27461948840076
