151
 energy: -221.320374939501 gnorm: 0.008745228007 xtb: 6.7.1 (edcfbbe)
C           10.12765801227300       14.08123603575524       23.00337845429480
N           12.00690067469342       12.05260450409780       23.45854552488321
O           10.76472230174345       13.02516913970154       20.88450404726094
C           11.23431389071625       13.80348506581498       21.98623933894320
N           13.99216210906778       14.31123359220966       20.07988264846577
O           15.81501914836110       18.77572469172532       23.19584110340532
C           10.02074450948995       13.75499000144163       19.93328424217784
N           18.01221674125362       21.36225211044620       22.05652164139219
O           21.34452379619275       17.88324614229708       12.70145767477522
C           12.36399747336689       13.01736349979685       22.62317768869243
N           19.37327082856652       21.64281226499548       22.21281990303599
O           23.59090074856370       21.97888080133694       16.40095046462593
C           12.93942022504744       11.33406138456974       24.05715709425886
N           20.52814467150274       22.19065199862931       18.81449071045721
O           20.44671126246759       24.34752128750033       19.49576659239210
C           14.29690629054947       11.54210822129709       23.86661022752617
N           21.81921614445767       23.35458135258663       16.56468357861081
O           17.43411764872752       21.53727838421032       17.83564775023108
C           14.67945828284316       12.54487707478876       22.99533828776293
N           22.54653444033490       19.45301871523181       13.81194979634931
O           21.39513132692810       21.93353982277663       21.27713572354260
C           13.70681196328211       13.30346149791426       22.34345488341284
N           26.87855723747618       17.29561515485321       11.55617692181037
O           15.33635428345324       20.79428608230977       22.34206213651870
C           14.14881411231653       14.37830661134369       21.44627502940787
N           16.49191866607077       19.05598985738509       18.73474686890627
C           13.55398594031568       13.14968518604485       19.34623821924372
C           14.71024427778348       12.18120289381791       19.10160658163692
C           14.81412522596121       15.53036985676484       21.79908849137973
C           15.20683589815062       15.95065542129556       23.17929994742349
C           14.30631578917663       17.00897367125845       23.85798278824582
C           14.73696534029103       17.14987647062481       25.32037786862779
C           12.84120555153896       16.58295946995727       23.79398462720508
C           14.44048212374602       18.36911400565722       23.16323780831049
C           16.13091182833598       19.97306325305603       22.74306210599497
C           17.63191616467338       20.19041185655404       22.83733066902908
C           20.18733847296013       21.75783946227106       21.15514022086442
C           19.53543024928953       21.73751803544331       19.76461992187429
C           20.98757558474916       23.45522884608950       18.85543372870354
C           22.19859318335120       23.65825285141181       17.94313819007756
C           22.90268772910671       25.01961619832214       18.12407364506590
C           22.10185223115535       26.23111538458362       17.65469644460392
C           24.26089344601323       24.99379013297171       17.42566920029755
C           22.61881361015127       22.52402200587062       15.87900159864431
C           22.35353953907684       22.27855644861483       14.37775492425165
C           21.12478993629622       21.41170666787603       14.09720387854630
C           21.39428173384054       19.96690902410413       14.51308576764036
C           22.42072656592869       18.43653838245767       12.94181813377867
C           23.63244286097600       17.97838576316915       12.31410514092198
C           24.51609622550837       17.39242935454050       11.74221154154570
C           25.62152641285765       16.70506227015857       11.08034918242567
C           27.00495041145900       18.71179989884652       11.27242540958311
C           28.08226363999743       16.59286598559711       11.16249895164719
C           25.51468462613973       15.23368251847417       11.51608384263986
C           25.40051891586118       16.80193429049856        9.55590918889755
C           23.76389689574006       20.18714732925385       14.05350753414727
C           23.58254532875191       21.66513401855062       13.69597392626842
C           20.52591165768594       23.84731022282821       16.12838704031299
C           18.99933020582149       20.37140881668219       19.34623571646215
C           18.30533589434722       20.42656827586771       17.97183525664785
C           17.52792280375579       19.12297102883471       17.72706410656666
C           15.55018434075086       20.14716773990592       18.55467326949488
C           16.30165289573831       21.47020221593043       18.68967609723010
C           19.86693901396901       21.80728591605372       23.57270972253592
C           19.53595209798126       20.56768558849559       24.39893078345562
C           18.03458133689476       20.30444807852905       24.31986202033952
C           15.09930067239177       16.21107388028673       20.57928484735550
C           14.58211807943601       15.41353920056762       19.52722741563056
C           14.71741021062770       15.80001812461076       18.19756064256482
C           15.34985680212688       16.99416253370990       17.92445953851729
C           15.86764083871752       17.79275467810579       18.95465978463915
C           15.76418689971073       17.39466460818060       20.27073555829296
F           22.15497277185710       23.53556953533969       13.76734537880364
H           10.54954821089232       14.55886577987751       23.88236023152952
H            9.37034516329236       14.73525305162667       22.57975606792114
H            9.67342728361622       13.13850745509399       23.29496232712547
H           11.63812866159896       14.75125884201252       21.59641464955776
H            9.71551840224598       13.03531298177426       19.17781266723424
H            9.13384578663959       14.21484027069589       20.37559098820095
H           10.63841480413287       14.53668167682356       19.47487391264330
H           12.57529851529799       10.56475248244775       24.72425129815463
H           15.02719805563433       10.94008108267194       24.38254114940464
H           15.72339459999471       12.74748949012277       22.80383464832722
H           12.76228787372581       12.65123023954888       19.90953480226971
H           13.14114878191142       13.48649155829253       18.39310124160442
H           15.10709692714890       11.82266173669130       20.04849829928860
H           14.36227473695899       11.32872293811500       18.52584057076573
H           15.50902058595025       12.67569132554818       18.55353791765494
H           15.20421463535732       15.06714228429574       23.82005657500993
H           16.22306573433774       16.34695026766994       23.14714534806012
H           15.78622717965847       17.42993732944249       25.37856697549764
H           14.14541530739493       17.91511676766308       25.81775621291623
H           14.59730122716651       16.20975202679596       25.84693961175342
H           12.49683914587887       16.55011116357005       22.76451902072849
H           12.72775002928427       15.59305438261045       24.22750653986507
H           12.21478890248001       17.27915792832365       24.34450879649579
H           13.83691729462374       19.12839688504580       23.66992401319785
H           14.11709245297216       18.31533208156167       22.11932396422346
H           18.13687937468077       19.32127534464335       22.40064565727001
H           17.44205133382267       22.16062476501696       22.33904208862969
H           18.72975511175166       22.47858736667314       19.76952692420593
H           21.14504261183249       21.47934360929436       18.44934130895369
H           22.93610873187388       22.89788717603012       18.23294748146694
H           23.05779609365161       25.11293517564213       19.20487365132373
H           21.13394695605324       26.26424021442449       18.14847117875624
H           22.64484339211431       27.13565938123884       17.91748591496071
H           21.97110296493185       26.21783871688910       16.57609032991557
H           24.12987005710216       24.89200032710277       16.34980226549372
H           24.79937296369404       25.91768732462000       17.61835894904436
H           24.86291257254606       24.15814442122605       17.77414792861993
H           20.24331397189141       21.78625698106293       14.61298297351443
H           20.93428331226463       21.45185623507735       13.02229690884772
H           20.54098401204931       19.33336146328089       14.26355735329416
H           21.58619726433372       19.91409657243021       15.59079654796345
H           27.28275376699602       18.91938332751340       10.22813777166432
H           26.06617100307301       19.21555761530896       11.49300563400591
H           27.78102942547103       19.12191630330429       11.91859117576415
H           28.27150814672618       16.62723761453984       10.07891759086744
H           28.92263412051485       17.06805380636840       11.66628295684065
H           28.03809272982502       15.55735946455096       11.48487833925422
H           26.14302174717861       14.59975019398827       10.89543285490528
H           25.80931723699339       15.13640194386984       12.55968638722504
H           24.48179022947653       14.90238277569522       11.41169896497448
H           24.44043327014962       16.36124646114435        9.29874498965697
H           25.40196550995595       17.83818087670246        9.22966580861713
H           26.18461491611004       16.26060858944208        9.03289882608493
H           24.02829870364268       20.10875204664560       15.11395846100984
H           24.56879455045779       19.75732429476747       13.45503729360905
H           23.44572743986528       21.77804970229266       12.61893718408230
H           24.47419200881707       22.21492861085690       13.99693173011186
H           20.26764454994596       24.71227499941117       16.72869251494154
H           20.54056844033541       24.14206823756338       15.08381826673206
H           19.75270881784069       23.09313416907824       16.29398078327635
H           19.81768364010895       19.65319974596287       19.29494311292980
H           18.27234712912533       20.02935649509566       20.07894033775741
H           19.04564042888125       20.57227881159913       17.17833851375234
H           18.18684608510507       18.26116805112017       17.83012717189568
H           17.12382649382512       19.14661890685149       16.70005587636984
H           15.05511998245031       20.09414016471224       17.56820669999649
H           14.78931284738340       20.09295598923024       19.33501819082879
H           16.60009232468289       21.60152716122371       19.73595047256845
H           15.66687995841979       22.30426840812632       18.38799909797394
H           20.94116070281841       21.97619277249812       23.50480470774031
H           19.39041124081536       22.69249847424758       24.00811878977325
H           19.84322993457523       20.72583803874218       25.43144369590160
H           20.08261267534215       19.71162851190558       24.00081232266753
H           17.48538683650328       21.12961423451752       24.77972171716279
H           17.77364595700332       19.38257650835803       24.83716651049552
H           14.33621432322041       15.19119883341437       17.39171678673802
H           15.45059172581495       17.32057862991941       16.89924608592837
H           16.21056302701151       18.00832743339506       21.03307509268854
