151
 energy: -221.328351928205 gnorm: 0.007875200646 xtb: 6.7.1 (edcfbbe)
C            9.30747851955145       15.34467622674188       22.88414264388640
N           10.63958354648589       12.94383714009643       23.54157002524141
O            9.80556071758996       14.00172761314340       20.88653112993358
C           10.37015118417169       14.74681141089626       21.96405011224343
N           13.28040583143218       14.57525185121525       20.28010326002410
O           15.62177519167656       18.84347446229575       23.21754265186557
C            9.13677934333914       14.78555044491234       19.92099481632248
N           18.10289079372740       21.23917904574658       22.41981408700847
O           26.35755715048811       16.95679119835691       13.87169796169150
C           11.25970233070719       13.77806974111103       22.71926271436125
N           19.45699785978463       21.42175710880312       22.72119227755717
O           23.42262049168300       20.03802702671151       17.67485775730684
C           11.34650314181987       12.05779436149679       24.21949786932969
N           21.00384204299313       21.37607058154452       19.43673277759986
O           20.18758466417213       23.32273760376811       18.63646069159449
C           12.72672730375202       11.95744380481072       24.12931075378403
N           21.95289445437870       21.40351506031752       16.66477612489595
O           18.55205429784751       20.55021733532824       17.89016656021597
C           13.38303505544660       12.82877197926427       23.28069701975737
N           25.05774798307423       18.71116253139660       14.49074761143324
O           21.59866643515907       21.34301629232516       22.03841577656073
C           12.64961592272032       13.75976126884222       22.54423225263486
N           25.84702709173879       20.56017665714062        9.45658100868075
O           15.33032388361305       21.00392524585485       22.68621622792934
C           13.37631113626624       14.67102031905809       21.65213260219741
N           16.83054833207005       18.59214456350178       18.91522237704564
C           12.62172600335846       13.51574140162686       19.55812139528839
C           13.56006905088160       12.33172604818798       19.33022301297670
C           14.26943941398884       15.65699539837203       22.00323345449100
C           14.66079911017237       16.07508230623890       23.38407090607981
C           13.90802630010858       17.30041948693142       23.95298670502487
C           14.35420649788903       17.51629243742819       25.40212054535445
C           12.39844932927959       17.06975893724416       23.91455834129564
C           14.21806402163150       18.56147365658987       23.13721248409225
C           16.03894258962626       20.07052254740172       22.99059325525641
C           17.53400395319429       20.17240212744329       23.23615709167918
C           20.40003978092490       21.28944900199822       21.77688732767607
C           19.90550459231737       21.11936936617474       20.33862475831044
C           21.04607084337709       22.45041749547763       18.64138203621065
C           22.23428359823169       22.42913933924123       17.67024604633479
C           22.51987482823728       23.80673812297472       17.05396920155635
C           23.59646651500417       23.71014569224345       15.97450847227873
C           22.97627908398846       24.75519933562781       18.16141704714075
C           22.62559546676183       20.24964998155391       16.75933861533712
C           22.46258251476847       19.18048058928420       15.65731174579635
C           23.27980224721723       17.92662650746874       15.98130064852897
C           24.77835630570785       18.16345149147721       15.79764139511463
C           25.82494526812043       18.03949580097038       13.61550889166048
C           26.02675899678946       18.65779488407876       12.33221497153484
C           26.31194408247712       19.01782751871044       11.21830620274523
C           26.70440241722707       19.44511742977312        9.87998238364685
C           24.42614120080398       20.29883027696641        9.57114724872584
C           26.15415045462742       21.09758319842204        8.14715200626234
C           28.16258880706825       19.92393506443339       10.00630175821008
C           26.64224655416722       18.20182532642953        8.96829584990454
C           24.35704132894388       19.93774196577780       14.20100459969577
C           22.84641552668431       19.69707764384323       14.26781170710986
C           20.82250626237445       21.68199325150229       15.80205087789097
C           19.31435164723867       19.72426630581204       20.09455678506096
C           19.07525092698076       19.43918998098408       18.59948222220363
C           18.15284497448102       18.22008226278990       18.45055067788628
C           16.29468915568620       19.65771850069428       18.08644965945708
C           17.21474836168375       20.86559572199222       18.23958193211781
C           19.79870404961611       21.67896050813084       24.11265942709548
C           19.24913328045785       20.56499378968744       25.00128686464976
C           17.75261462399368       20.40877280934684       24.74412990256789
C           14.76780095640903       16.19527523476476       20.77942081221956
C           14.12733097369268       15.49306239353378       19.72663227580936
C           14.38463593924425       15.80294397604971       18.39607151486714
C           15.27581515482172       16.81827877258067       18.12393730167858
C           15.93164417750200       17.50814245581634       19.15358949239286
C           15.69473260251704       17.18871352380336       20.47461370784678
F           21.11155432607176       18.77084363904613       15.62730801235399
H            8.76928874246365       16.14449998100221       22.38188108790769
H            8.61276010633775       14.56316700677186       23.17756838536166
H            9.78151178474604       15.74903404445362       23.77281172273219
H           10.99356499999893       15.55186740464661       21.53770587110985
H            9.78264594383628       15.59493634932998       19.56232247805683
H            8.90374189006693       14.11075687990821       19.10197772909073
H            8.21061577412161       15.20773835368405       20.31588459978542
H           10.77468678487210       11.40646845353524       24.86602853636607
H           13.26691409542782       11.22046853488050       24.70120675473800
H           14.45694862664591       12.79358321946008       23.16578522695678
H           11.74463527992953       13.19399388433198       20.12318130036208
H           12.28372751512378       13.91485175287052       18.59813672123573
H           14.44091239288413       12.64738498271683       18.77525934812160
H           13.88013961082069       11.91445924875610       20.28309478459497
H           13.04641255926458       11.55746448739160       18.76814639817234
H           14.48514361725693       15.24101796905152       24.06583854167245
H           15.72719755653899       16.30518734605247       23.38813691808077
H           13.88960807228697       18.40964528214121       25.81297199746685
H           14.06581192121781       16.66590437487836       26.01370326580645
H           15.43363382876174       17.63129095493471       25.45443699619160
H           12.04766632460304       17.01662509904656       22.88812860245932
H           12.15459026870829       16.13474685438831       24.41254872064053
H           11.87440788494105       17.87912810613421       24.41678343295475
H           13.66755585263709       19.42554102265308       23.52489224361046
H           13.95201267499890       18.42625252210807       22.08448205789536
H           18.00929020328690       19.23010897030521       22.94575583383770
H           17.58011004608753       22.10133789553505       22.58499373562740
H           19.15700575732038       21.89092103393817       20.13346524360589
H           21.78785462884704       20.73889259439781       19.46668759734623
H           23.12365671544668       22.09556949675011       18.21580567527965
H           21.58984062629492       24.19684354385999       16.62957761296907
H           23.27476284825024       23.09941946113779       15.13352534389198
H           23.83209493270047       24.70523369512210       15.60509257846987
H           24.50398854246190       23.27354214628223       16.39219854540573
H           23.17870309308784       25.74024289399350       17.75007225352703
H           22.20408511351434       24.85253915313523       18.92094660288248
H           23.88290437729925       24.38291954481223       18.63372108531284
H           23.09181605488929       17.62227357464964       17.01200539794245
H           22.93950794749574       17.13157299276423       15.31580722675311
H           25.32214988493889       17.22169909248473       15.88992550687609
H           25.13077650593398       18.85972924742171       16.56423665083920
H           23.89904284256476       21.24974744923423        9.48323556483077
H           24.04431451951285       19.62122932910588        8.78957650413537
H           24.20973723529544       19.86466054417809       10.54793538387370
H           27.21858692168772       21.29805468290325        8.06192087841099
H           25.84535552986743       20.43303484590893        7.32458645701184
H           25.62080822126727       22.04259319914476        8.03785978057282
H           28.18561717066931       20.90124185478916       10.48167727117971
H           28.72360192143538       19.21963367063585       10.61811418716891
H           28.63828945763609       19.98179116307144        9.03100229833740
H           27.24541058502479       17.40598294203900        9.39883357112117
H           25.61887554852276       17.84370131597599        8.87573927779386
H           27.02972053506223       18.44073226688914        7.98059518368544
H           24.64487544421432       20.68751161584868       14.94631066254698
H           24.64136124649004       20.29184727026321       13.20917382808881
H           22.56629706303283       18.93180349500528       13.54213236290113
H           22.31483115274530       20.61328190293552       14.02727609977097
H           20.42984483093299       20.77690351163666       15.35549078131038
H           20.02588453999376       22.11452906395484       16.40698641673345
H           21.09675332447713       22.39443928393688       15.02353996680053
H           19.99746668496294       18.96636386949126       20.47743126253621
H           18.36182447196429       19.65119145733517       20.61613548348517
H           20.02890882438729       19.23644423750556       18.09942200140867
H           18.52662773320154       17.39591216272535       19.05970402257793
H           18.14896528872270       17.90407393759056       17.39112486826749
H           16.23836195290344       19.37279928922591       17.02315037447153
H           15.29629985302230       19.91111247385662       18.44345924441235
H           17.16131664268487       21.22811373220860       19.27289110087744
H           16.92413462434536       21.66980538555297       17.56186009857100
H           20.88516538157849       21.74169712872752       24.16980658029210
H           19.36486619373275       22.64300277770240       24.40133523220837
H           19.43208116203270       20.81077104627983       26.04592142649198
H           19.76242352802930       19.63025754037930       24.76881902811312
H           17.22223997374578       21.31715886303822       25.04081628905160
H           17.34577537089418       19.57052895368102       25.30909792137805
H           13.89593014655780       15.27499200900178       17.59286919425157
H           15.47784873320298       17.08426203827193       17.09739031809916
H           16.22802615522196       17.72001985665727       21.24527580276127
