151
 energy: -221.324708672057 gnorm: 0.003623722301 xtb: 6.7.1 (edcfbbe)
C           10.10431213485370       13.84990357312929       22.90322272525679
N           12.13197369426461       12.05580951274067       23.64321690625477
O           11.00146554359443       12.68117331584024       20.93678580534584
C           11.30107015595681       13.60086612105739       21.98679475335079
N           14.17599793978896       14.24338654101663       20.24325063196336
O           15.53388389577903       19.02761961839147       23.07698340936335
C           10.19715051963640       13.20953854282231       19.90535755525785
N           17.89030696315303       21.49643723818492       22.03765589454628
O           20.90965615957329       18.57110984712478       11.89988298721806
C           12.45335920757783       12.99508087382492       22.76474845501571
N           19.22273437731883       21.79873622400627       22.33843299567046
O           23.21654506631107       21.62095036972897       16.13090903087851
C           13.08180096387323       11.48583908514807       24.36215301537081
N           20.83201079539219       21.97133407431538       19.08838952322326
O           20.07628097623913       24.04436476071278       18.62852083710719
C           14.42007352520410       11.83360052280062       24.26157382455165
N           22.06122990433035       23.52974856365051       16.38966833396842
O           18.02245512554930       21.16567628683432       17.69752770712191
C           14.76491283932480       12.80940478509524       23.34552215656583
N           22.24985693760989       19.95704538170605       13.09711685054591
O           21.35748308881822       21.97473484243340       21.66427158230117
C           13.77661705356463       13.40550970616807       22.56085860008421
N           26.42415655161499       17.17391873296577       11.34435180396477
O           15.17421238136867       21.03550057308755       22.14157804343042
C           14.19421914191498       14.43960886982912       21.60615882728421
N           16.79585452701891       18.86861963843478       18.71687847115795
C           13.84676405696877       13.00962314271835       19.57429345189595
C           15.08264166899216       12.13358733784271       19.37823853480558
C           14.76226447740614       15.65681019164794       21.90851056587460
C           14.95610739733843       16.23699887369142       23.27184984125507
C           13.93431940773807       17.32225856575420       23.68976878256162
C           14.10819426843529       17.60303244970092       25.18483703635989
C           12.50776586971540       16.85076981589583       23.41778214159265
C           14.16832253301886       18.62284133742109       22.91027280501610
C           15.91008749617677       20.21043701909223       22.63477823366941
C           17.39758596339110       20.40913688934139       22.87718763210216
C           20.17567094536003       21.78515656561558       21.39493227543901
C           19.72131934881946       21.60786549719459       19.94126772232788
C           20.95388142205742       23.19113901094087       18.55588535468305
C           22.28098790643280       23.43654109298657       17.83116871065077
C           22.97586155175814       24.67848249536861       18.41733492567172
C           24.28928049946634       24.95159891443713       17.69009795904723
C           23.23483007443440       24.43858750510947       19.90380004191647
C           22.62393694093715       22.58051270846320       15.63204166722253
C           22.51180448049220       22.65884020582074       14.09988687865376
C           21.17356869083302       22.09892969548963       13.60392941508046
C           21.14278300225651       20.58343884412518       13.78171655780698
C           22.03569990998394       18.94336776208610       12.24033882433036
C           23.21104143085465       18.26914405533072       11.75600753576721
C           24.08099381139890       17.54176250949148       11.35047227944713
C           25.13427429955045       16.64252165015225       10.88721091139458
C           26.72625930947885       18.49867609069926       10.83877521040051
C           27.55728089183302       16.29079651660428       11.16038111205156
C           24.84596665803303       15.28643483792233       11.55598961613334
C           24.99952223029887       16.50506148411756        9.35648931563328
C           23.55406365217811       20.40530719714011       13.52361960517949
C           23.66358624780774       21.92568141129890       13.39993495647892
C           21.28614419337396       24.66261582742100       15.92886040402175
C           19.23954225944933       20.19435240238058       19.61818293688997
C           18.79986165477433       20.06646724305165       18.14662474116903
C           18.02018556475771       18.75656452389199       17.95250407597660
C           15.96931544227031       19.93505348600899       18.18334376499062
C           16.74758547392753       21.24387601243777       18.31565847737879
C           19.53645608117558       22.09955861951617       23.72807957241832
C           19.10522118638900       20.93792651965043       24.61737396156865
C           17.62338506962271       20.65698395660530       24.38100837610430
C           15.14827408970258       16.23419490665528       20.66415736961150
C           14.77077849370608       15.32046825071313       19.64762123078270
C           15.03754599217050       15.58334356664865       18.30772709422690
C           15.69323945782835       16.75347010385315       17.98870955757194
C           16.09911056525798       17.65169136031243       18.98621639156041
C           15.83375227907515       17.39399133725646       20.31381449909311
F           22.61385552354583       24.00060598182672       13.69310549975677
H           10.40035804373783       14.49946684030710       23.72065775299031
H            9.29436261510720       14.32381668208629       22.35672009853571
H            9.76639699145964       12.90100359774971       23.30779609324929
H           11.63404039982349       14.54931712608999       21.53484221025911
H            9.17901487282078       13.41372652007328       20.24685751106415
H           10.63507593996511       14.13122036319526       19.50479528068104
H           10.17117417419187       12.44742596647807       19.13014994085645
H           12.74598541973092       10.72409885408845       25.05217100244828
H           15.16472415436387       11.35536323232413       24.87685978962802
H           15.79379018193337       13.11376362682299       23.21913727779558
H           13.10150114405988       12.47483522667220       20.16698195541298
H           13.40401593123364       13.25335377423912       18.60468738766791
H           14.80957049519014       11.22549832208641       18.84807377274024
H           15.83912541589505       12.66467668422937       18.80388475248142
H           15.50780211547125       11.85970097306337       20.34207989772343
H           14.89026749111823       15.42899825194751       24.00240037696390
H           15.95343460699465       16.67451459506307       23.33169957318929
H           13.91957856890772       16.70252037610095       25.76246698532090
H           15.11979369067218       17.94267075506382       25.39030862901042
H           13.41145471991164       18.37198741035836       25.50975038336145
H           12.34934514693881       16.70502309314045       22.35247985892802
H           12.33013433411239       15.90651467439475       23.92556508133588
H           11.78716226714933       17.58148007740968       23.77578076189472
H           13.51489893695404       19.42284545620104       23.27227621125133
H           13.97772919159801       18.48019510425632       21.84249712460594
H           17.92520751078045       19.49435900418232       22.58455349927193
H           17.29656511647580       22.31815445577909       22.16427826783702
H           18.92767551542809       22.33429167304111       19.74016909694756
H           21.62413403230511       21.34522129628892       19.08896092428547
H           22.93547221774933       22.57206955716109       17.97626989019286
H           22.30516967117920       25.53609029039508       18.31273081167152
H           24.12584122977662       25.16048836753290       16.63590949926159
H           24.78788315631961       25.80730076176434       18.13632294373136
H           24.94584576476451       24.08765024303452       17.76847036738460
H           23.71241204686426       25.30854775503143       20.34541985620449
H           22.30655054130565       24.24764846371552       20.43821883498142
H           23.88430271733459       23.57747758748289       20.04545501686773
H           20.33591285105182       22.53449693958135       14.14825184141489
H           21.07539870227276       22.35429908248832       12.54666463100312
H           20.21942053178579       20.17054997070339       13.37092566571283
H           21.20353590140409       20.33864044043143       14.84894696836466
H           25.83163261154355       19.11691339678451       10.87039064280779
H           27.48262367996013       18.94702113738545       11.48314504338251
H           27.11416664103833       18.48801611364910        9.80953461231105
H           27.38056382768355       15.34161197490925       11.65708376642985
H           27.79847855051962       16.10610333062384       10.10279324485997
H           28.42283005164362       16.76103780785289       11.62539557968869
H           25.37132547746133       14.48701909799764       11.04607428096782
H           25.14743720604734       15.32058462683576       12.59780236015130
H           23.77952470755994       15.08368682375229       11.51100887343875
H           24.00978364029597       16.12807101558515        9.11366032570265
H           25.12812484264254       17.46892189579498        8.86977235574749
H           25.74370602239401       15.81040835370680        8.97639112005370
H           23.70934535295454       20.12334817117207       14.56920945503806
H           24.31723500761585       19.92876101418846       12.90824039731578
H           23.63162466721672       22.21874368422426       12.34850559841450
H           24.61289915085795       22.25212839038365       13.82430747712113
H           20.56581544527923       24.91269125009264       16.70589952951201
H           21.92791080355069       25.52403036939445       15.73859967770190
H           20.74339346620316       24.42928619908669       15.01902296218741
H           20.04196773987321       19.47994992984769       19.80142738597579
H           18.38925241705030       19.95079429066038       20.25129685804183
H           19.67602856476727       20.08256200154998       17.48966663327479
H           18.60030576755069       17.91385923457958       18.33019222168119
H           17.83745431112066       18.60984765293477       16.87271622276353
H           15.70922963855014       19.76176674245352       17.12318446508698
H           15.05038007555506       20.00197732787674       18.76784599557386
H           16.84762609725584       21.48918255049777       19.37964893230275
H           16.23286382049720       22.05843901220601       17.80420496089753
H           20.60994502591816       22.27759267652122       23.78415293215719
H           19.00234200319413       23.01295457114639       24.01203195797740
H           19.28290015637237       21.19070798312113       25.66139014919523
H           19.69411858775523       20.05439192446845       24.36827013254065
H           17.02557704668470       21.51472909456222       24.69865725993565
H           17.30006847428823       19.78191877822699       24.94259317342548
H           14.74811924651902       14.89290786744441       17.52996838725081
H           15.91169614954778       16.97748052281933       16.95437008864347
H           16.18921612880660       18.08735334086630       21.05561753547498
