151
 energy: -221.321851850529 gnorm: 0.009220683211 xtb: 6.7.1 (edcfbbe)
C            8.98446559193932       15.85200845470039       23.87428225806890
N           10.22525198602104       13.48889410776658       24.72196262303156
O            9.22639830106058       14.29222206101442       21.99246477170746
C            9.92882748024744       15.09220365836048       22.94367528136805
N           12.63732959089776       14.43355292196749       21.01694068341121
O           15.62607961563013       18.74273072801371       23.15422734199386
C            8.63335619900571       15.02722753084226       20.94400581545826
N           18.25244864507073       20.65634584751158       21.71722422885125
O           25.66964314367425       16.63550103958118       12.30072992879746
C           10.81113512264092       14.14318527444593       23.73106033480562
N           19.64808132825651       20.68653347517387       21.77832240145240
O           22.80855664263660       19.24004450001578       16.46251787837870
C           10.93077069355158       12.63343340053452       25.44148230948323
N           20.63411329543003       20.57837995316927       18.29639657987647
O           20.42396892674465       22.83231753332116       18.19947103437203
C           12.27649890177500       12.38482322305273       25.21982166185575
N           22.02797269576221       21.23808059687518       15.80157718011416
O           17.55530400211167       20.06761502249173       17.41712136294082
C           12.89943167572296       13.07223750738624       24.19385650992082
N           25.04629539142646       18.33768211065085       13.67538638456314
O           21.61798804343981       20.57522509123216       20.70581890496939
C           12.16663326942973       13.96924843558139       23.41746576477885
N           27.43104630573446       21.88307465009394       10.71272516917233
O           15.59243275406205       20.85473413463268       22.39045089556080
C           12.86079549228487       14.69904292264579       22.34952202867647
N           16.17968051765096       18.07821740456224       18.83704029530727
C           11.84823016574336       13.34410840282746       20.49720890489620
C           12.66660532830169       12.05788022181242       20.40377438842235
C           13.83325878188690       15.66325278984726       22.49173236839922
C           14.38777272600582       16.19615945783203       23.77500012973866
C           13.83119705677585       17.55616602245733       24.25591148371665
C           14.43567156382901       17.87017876080602       25.62755330448189
C           12.30900372753948       17.50552306729903       24.36766447156855
C           14.19985174237915       18.68172289741402       23.28155796590517
C           16.18420088454974       19.84181758170434       22.69352504971013
C           17.69351370458421       19.67646833558145       22.63895330002840
C           20.39141827021320       20.54703428741247       20.67342933382697
C           19.64683293958766       20.40211729979857       19.33768730422281
C           21.04959463523833       21.80761410611124       17.95193801476972
C           22.33870698576159       21.77857196785249       17.12302941061316
C           23.04757012089213       23.13833849724879       17.06151065969692
C           24.26987914972017       23.07319107270872       16.14757220044251
C           23.48613397079767       23.52224161837187       18.47461133891013
C           22.38007433034119       19.96746804360782       15.56623422129017
C           22.42908419495143       19.45084645657402       14.11594543924610
C           22.66176551184902       17.93723694245995       14.05153974753202
C           24.09742592440733       17.53828268451721       14.41453751318047
C           25.68707735350534       17.83103531604808       12.60033616491616
C           26.41753173830471       18.79847759158859       11.82568413888123
C           26.96571456311816       19.58368924633934       11.09529529018786
C           27.68317126610688       20.51735542028653       10.23436430003946
C           26.02978298600132       22.22085622630974       10.86544234559802
C           28.11203029164147       22.92195848287738        9.96632245222219
C           29.17313671585629       20.16890375450236       10.39380316914452
C           27.23322341507058       20.25413451156128        8.78148752851312
C           24.89853483679958       19.75401653913229       13.91291438212446
C           23.53948505409954       20.20366608967179       13.37034151170420
C           21.20240162895035       22.08021263929082       14.95823504639554
C           18.93328312627581       19.05826295051400       19.20535633990764
C           18.22541798421557       18.89413431719220       17.84626910809466
C           17.23947470546004       17.71274563302833       17.91844544464875
C           15.45350862372150       19.22647490828332       18.32380682957028
C           16.42796862442467       20.39680235158519       18.21166005524945
C           20.25907739141529       20.86480117158205       23.08660373055547
C           19.76871308887888       19.76443573037409       24.02460642926959
C           18.24412399074109       19.79993398922538       24.07375671789960
C           14.24387885453442       16.00777346576406       21.16954723187926
C           13.48338512202867       15.21090988787113       20.27766630258388
C           13.65796389517889       15.30469495645528       18.90024497752476
C           14.55962151301679       16.22751117599911       18.41729813678468
C           15.30953884610343       17.03372672692901       19.28705942443725
C           15.17777391890932       16.90333618979488       20.65278787230435
F           21.21195689086655       19.68405665031571       13.45178935455051
H            8.34877401817680       15.13912526238863       24.39049616388698
H            9.56161203705311       16.41061988682878       24.60224765125392
H            8.36843255287048       16.54716694531874       23.31163431965428
H           10.56843416173756       15.80173012880637       22.39337741520270
H            9.39622524453059       15.56763727823376       20.36579778724658
H            8.14196096921955       14.29506866948856       20.31029349382867
H            7.89084444145975       15.74407915396264       21.31170426716187
H           10.38815511474977       12.13487820123195       26.23242411278840
H           12.81944566757073       11.67802063857163       25.82744876043226
H           13.94641125202255       12.91751148733508       23.97793526145768
H           10.98376051725570       13.19043422611692       21.14698261717343
H           11.48862728511502       13.63142476393969       19.50715711450196
H           13.00832338692309       11.75645571526510       21.39110147418941
H           12.05490705217726       11.26181167696175       19.98986032809779
H           13.53438321345456       12.20567560201097       19.76495898674657
H           14.18612235485234       15.46990969562135       24.56462016966459
H           15.46936099128753       16.29582178159773       23.66741473111458
H           15.52036210428873       17.89656689892077       25.56749191491271
H           14.08538862290740       18.83667772903620       25.98280286408314
H           14.14562111881551       17.11265008196053       26.35020070968286
H           11.85986044620035       17.36602681194183       23.38847262460835
H           12.01285706061547       16.67678827501541       25.00613620406065
H           11.92673075197105       18.42901793672796       24.79458173085757
H           13.83679581261646       19.64787964826802       23.64358561837545
H           13.77489005102745       18.49693675371298       22.29053463245536
H           17.92629011015287       18.67770975855484       22.25346658554842
H           17.85970365358265       21.58032674687756       21.91344544753510
H           18.93341977655923       21.22887519558974       19.24971821281087
H           21.28099080275405       19.81011921381691       18.16121610369942
H           23.01560926377845       21.06228809021839       17.60210715051300
H           22.34669238203726       23.89420664463949       16.69899544563385
H           24.93928310574423       22.28114688843648       16.47531613440309
H           23.99280601201962       22.88426207293156       15.11520306548046
H           24.80755961986647       24.01579821931076       16.18959724042467
H           24.19815114520962       22.79609905508907       18.86095702772044
H           23.95490004721039       24.50189409214609       18.46714650788088
H           22.63291895354577       23.55248387652097       19.14658579671504
H           21.96929648618809       17.43500769593721       14.72712729518476
H           22.44285950477811       17.62381242747302       13.02847218349567
H           24.26393916286125       16.48947112290092       14.16523082809468
H           24.26042559181184       17.69481932540039       15.48340411114876
H           25.50889021798954       21.41513219761547       11.37784704297489
H           25.96444366261786       23.12363613828394       11.47276788805781
H           25.52039493782021       22.41518674456694        9.90762536253979
H           27.97823432825187       23.86015108725080       10.50380981127504
H           29.17508028309129       22.71267690716338        9.91016100900018
H           27.71383618778433       23.05237899611033        8.94928362133676
H           29.51262442634175       20.46422384673610       11.38336695119771
H           29.30639094161379       19.09562496860291       10.28137034926208
H           29.77398814540124       20.67016735751608        9.64046005943696
H           27.90761287005224       20.74797565925785        8.08467969404599
H           27.24208344600133       19.18416769132519        8.58054925235676
H           26.22059229996675       20.62322836658588        8.62295926330460
H           24.94672562688862       19.92141744286681       14.99222215048776
H           25.71049146753540       20.29762261404332       13.43208441472282
H           23.46970812316601       19.95397237982797       12.30813249448335
H           23.41489790763390       21.27862432272900       13.48107984897653
H           21.80482836598963       22.71165428583405       14.30439794838037
H           20.52354834682645       21.48521112627446       14.35829596943447
H           20.60455596669108       22.71959564850607       15.60517617754829
H           19.65578858365151       18.24917962726990       19.31464733743627
H           18.18235224850739       18.98076623931859       19.98785234295509
H           18.96438922558269       18.71661997330202       17.05809441623279
H           17.74695825129218       16.82312296160035       18.29605769160554
H           16.86555323801627       17.50687774317537       16.89772290478998
H           15.00541975776394       19.02005889520327       17.33440443710762
H           14.65843479732724       19.48702587795145       19.02372296625634
H           16.73836365638291       20.69701561469025       19.21913047765925
H           15.96163343177669       21.24373460559266       17.70705131405466
H           21.33923862751268       20.82576211046424       22.94433464268867
H           19.98103186596746       21.85006179722636       23.47533579604184
H           20.18662372969712       19.91719488156737       25.01842178473236
H           20.10408446434048       18.79588765473384       23.64949103017738
H           17.90567868125000       20.74239378158816       24.51159195134278
H           17.85707884493600       18.97769344564671       24.67547494877800
H           13.09574983709882       14.68377960556574       18.21870102828850
H           14.69401026673517       16.33455003081796       17.35038111183441
H           15.79563134072698       17.50284067570884       21.29661295499974
