151
 energy: -221.322395499306 gnorm: 0.007567150375 xtb: 6.7.1 (edcfbbe)
C            8.79443461340004       15.55816233145845       23.63650936737755
N           10.17978525497988       13.20041988886431       24.16397085670292
O            9.15427474287911       14.32712846010132       21.53973449620181
C            9.79503669696703       15.01108122951569       22.61809380819476
N           12.68766266296832       14.58293919228145       20.61475324649235
O           15.48872530688455       18.82842387420996       23.32879893963735
C            8.42482984420065       15.16939626402852       20.67338239621804
N           18.36345759242916       20.56001549305772       22.18523872295505
O           27.75553390146960       17.80803153288460       13.45297868973687
C           10.72832467337489       14.01082238145596       23.26868353228245
N           19.74418601952019       20.48891276862540       22.38567810284187
O           24.42745769013667       20.21435784223509       17.35097185520869
C           10.93108780055371       12.30589766160158       24.77919835437426
N           20.95834008013686       20.58084639614947       18.98431203323218
O           20.44226476539083       22.76708334202669       18.79271810497885
C           12.29234619004299       12.17265491154575       24.55035361382312
N           22.40461956436956       20.88319577905797       16.64668385528230
O           18.07686635070451       20.26090643081293       17.80709757385030
C           12.87342590628544       13.01534452595596       23.62157738840098
N           26.19309306441838       19.25645977447491       14.23337455728463
O           21.78788966321688       20.21376358449487       21.48363755587592
C           12.08928060624695       13.95376605022219       22.94730101205649
N           26.59822256069625       21.53227342246997        9.29187158362729
O           15.65580983500904       20.89969085674080       22.48707416869259
C           12.77122868251807       14.81470240647496       21.96878162543601
N           16.43893944792442       18.27389738072979       18.90692159353286
C           11.90022112003357       13.55030704769466       19.98798597108459
C           12.56657296829143       12.17702543830519       20.08698512261458
C           13.68663286544890       15.80852718881774       22.23016988999606
C           14.07497188368093       16.32315744469811       23.57938132144127
C           13.45620060395111       17.67911100819245       23.99467208377809
C           13.73696009790909       17.90535618056679       25.48227449227900
C           11.94919708112887       17.68586684110414       23.75007893586984
C           14.06130817912794       18.83513931817128       23.19039358655108
C           16.15805396187372       19.88790898648784       22.92303218829802
C           17.65152356428043       19.68255703767578       23.10461548813115
C           20.57195889072249       20.31275948499244       21.34630797487530
C           19.92519279376512       20.31277246844342       19.95784042684141
C           21.17630770348464       21.82707995099516       18.53452549788464
C           22.42047804035429       21.94649622045296       17.64686030463258
C           22.57153782971837       23.34575243052998       17.01901363755897
C           23.67725441849089       23.35391811352689       15.96513369691385
C           22.90164555720348       24.36500036627919       18.10870435897155
C           23.48244058513486       20.09157810372450       16.57207628649599
C           23.58917296089530       19.03746762659270       15.45148295976086
C           24.70648252618476       18.02554887804357       15.73017820291644
C           26.10133725783738       18.62065781030724       15.52692482989876
C           26.98778243173070       18.75578336657028       13.27228364112186
C           26.91052355223414       19.39165044484621       11.98196878403163
C           26.98110913074357       19.74837016933719       10.83358507319776
C           27.04546306827581       20.14158912410836        9.42848228654413
C           25.26770268738943       21.78198547135062        9.80950382640130
C           26.73019813567476       22.08937710355966        7.96022614499781
C           28.52309050008406       20.01127104448966        9.01989337758060
C           26.20095016118722       19.11321563536803        8.64281521001211
C           25.21823671698898       20.29714488600248       14.02736988669868
C           23.80758362097441       19.70313054620298       14.08830371332535
C           21.23749789674546       20.87547778075139       15.78542796740856
C           19.17451439053516       19.01732854813407       19.64143104510434
C           18.61747467981867       19.00949321875020       18.20440725345799
C           17.55172693709279       17.90982332250742       18.05736510709546
C           15.83725604933279       19.50616298272395       18.42999270285927
C           16.88981786351461       20.61168870867012       18.49893099604358
C           20.24088147578906       20.71900949303682       23.73397303569770
C           19.54077897625813       19.78793139886106       24.72129591708459
C           18.02801090974311       19.93771789766758       24.57607325426044
C           14.21609060495905       16.20282907942196       20.96630543494449
C           13.57395958727869       15.40733246428680       19.98228385379996
C           13.89801196317979       15.53310897998255       18.63463839639580
C           14.84641041573876       16.46570844962347       18.27323878311999
C           15.48901345149456       17.25930049744714       19.23531608001094
C           15.19241408801707       17.11614928643965       20.57405545353709
F           22.39924723080399       18.28409370212224       15.40143580389758
H            8.08889447868904       14.77366953159382       23.89591619854635
H            9.31881867298856       15.86429179928768       24.53786047209433
H            8.26122547771876       16.41562560099002       23.23457353220156
H           10.39367219107946       15.83297996882560       22.19499061964829
H            8.07915301510580       14.53367193282863       19.86199526035815
H            7.56288334983504       15.61739695645175       21.17456619247359
H            9.06609981619949       15.96506086778984       20.27537297988792
H           10.41350627550667       11.67822161389980       25.49220765080294
H           12.87537843834530       11.43577740371443       25.07834461620123
H           13.92944982567517       12.95726391979169       23.39970429589728
H           10.91409084306373       13.51644360170091       20.46271755215462
H           11.77035155670530       13.82360449180379       18.93810369650702
H           13.57548990136176       12.21090922994663       19.67946479857175
H           12.61903892195448       11.85265827012447       21.12402838450499
H           11.98522273113855       11.45007104539915       19.52811911615735
H           13.77033513492610       15.58455321346107       24.32371776049076
H           15.16115013615232       16.42331408090250       23.62056350400931
H           14.80564682592105       17.87346480613165       25.67656084538237
H           13.35485622492593       18.87294264177780       25.79787695552500
H           13.25235929382734       17.13584425504684       26.07763874620153
H           11.73926125088555       17.59744308753388       22.68742090711606
H           11.48758179256673       16.85015941018652       24.26787575529655
H           11.50600435237571       18.60964262325486       24.11135692561336
H           13.67915988091218       19.79854753043328       23.54352403351218
H           13.81968718244180       18.73979145025113       22.12725220175903
H           17.89955530533859       18.64678112643956       22.84567408615151
H           18.02288190140870       21.51855235676837       22.29301131159634
H           19.24010667258606       21.16446114165092       19.90604223813081
H           21.68207823474740       19.88297785211034       18.88350141550970
H           23.29183391779698       21.75963558356687       18.28824250487282
H           21.61863676715685       23.62627700295421       16.56159963022289
H           23.82085918904069       24.36464189802089       15.59354706898952
H           24.61181966949097       23.01334291748907       16.40902039572233
H           23.44040432300674       22.71270099725863       15.12066296990076
H           22.99063150494321       25.35613366561090       17.67336718797919
H           22.11707024410334       24.38853722733759       18.85937568227654
H           23.84220892695651       24.11081524480026       18.59167540800330
H           24.61713512210704       17.65918269756407       16.75287734656216
H           24.56021353108352       17.18857088259545       15.04406009572281
H           26.85453860313081       17.83271200443646       15.57088900895391
H           26.29911593894234       19.36020818583991       16.30716037247551
H           24.47025004402409       21.39660764792853        9.15726713367405
H           25.16803876479620       21.32862194456951       10.79249269645032
H           25.13715455552501       22.85866891736909        9.90578603181904
H           27.74747474965641       21.97471958547711        7.60087830068063
H           26.03687218552677       21.64136559345906        7.23266944952913
H           26.51115979770967       23.15456806138373        8.02218622794941
H           28.62739933057089       19.99923921158773        7.93880483340528
H           29.09327583810806       20.83827804370595        9.43306668184751
H           28.92345275985478       19.08052164601338        9.41312613665167
H           26.26934249611681       19.31173454301360        7.57613044697575
H           26.57700078496153       18.11209467417269        8.83784937049069
H           25.15887877250337       19.15446750408814        8.95043126284535
H           25.34144789130305       21.04153839128719       14.82083590277260
H           25.39361928898534       20.77241015065049       13.06221668431701
H           23.69707392936407       18.93824166170228       13.31581821740348
H           23.06640645234688       20.47995015550260       13.91226539687157
H           21.35451468796199       21.58611542978331       14.96599682416644
H           21.04349264510936       19.88886389246338       15.38275249004426
H           20.37012551974512       21.17518158752416       16.37298019877434
H           19.84131221119336       18.16279853746018       19.75724665323864
H           18.34223061844694       18.92000298116194       20.33658548109371
H           19.42962788535679       18.83702848823981       17.49063223991091
H           17.95367076262965       16.94992403053562       18.37921890908140
H           17.26897715423914       17.84415308957577       16.99238565521525
H           15.47338593565375       19.40580796211892       17.39014223613884
H           14.99736530251805       19.76760252864656       19.07489195157502
H           17.10339288666086       20.83149182549872       19.55121941363294
H           16.53286832616822       21.51815027071986       18.00850836982789
H           21.31747012689328       20.54874344297236       23.71132361643538
H           20.04907684005803       21.76555811796096       23.99980729766339
H           19.85198639205147       20.03974530362979       25.73415144199921
H           19.83012169060331       18.75680229946575       24.51490715308767
H           17.72158473036880       20.94902010527845       24.85539594306768
H           17.50601730328731       19.22688867908468       25.21550339707662
H           13.42693532313834       14.92050996771425       17.88085822028317
H           15.10497900638499       16.58644150706170       17.23107350817787
H           15.73542565625965       17.70655877433062       21.29132218212295
