151
 energy: -221.323769501874 gnorm: 0.004381743708 xtb: 6.7.1 (edcfbbe)
C            9.34967596689939       16.75728510304370       23.58172723067611
N            9.87774535434939       14.02196399628982       23.63155067147398
O            9.30098382723493       15.90203814980943       21.28923016573754
C           10.12567637647049       16.10688702631491       22.43675706034948
N           12.52188701069638       15.21814287811043       20.25790202942357
O           16.15796591887477       18.50496253517399       23.27732479624764
C            9.16681895979122       17.04542294156248       20.47231882675223
N           18.51868572232000       20.80070330493624       22.18956272607523
O           26.96918613027824       17.42215643249835       13.38404383031975
C           10.67203619721434       14.75697264634389       22.86719731025623
N           19.83839559788418       21.20830762524136       22.41350302612733
O           24.01435082385145       19.70769627446313       17.08282186304610
C           10.30056506931039       12.84926634645519       24.06892180737656
N           21.21883931926743       20.49941504648856       19.15053635190581
O           20.13916147857201       22.33740598229989       18.41760650921496
C           11.56146304486665       12.34547754153463       23.79113704773948
N           22.00025380206045       20.41626708630387       16.39374787011218
O           19.83829124902064       17.95357945480238       18.24119735964200
C           12.39446451904844       13.10033089935126       22.98607911103887
N           24.69946310352518       17.32921754566047       13.24483878718602
O           21.96489450111276       21.29369650150649       21.67269651017667
C           11.95309724719464       14.32658699600150       22.49097535607984
N           26.91922386944337       21.98879417673883       10.76592199578259
O           15.77382629118957       20.66297342049122       22.81484414652596
C           12.83546700146826       15.07875373877191       21.59114157137784
N           17.00897761344113       17.90895382853929       18.49388793494085
C           11.47879411628800       14.50950436532609       19.55968861059587
C           11.96747074000050       13.15056683418301       19.06238736754415
C           14.05568899191719       15.65952316424041       21.85940303316718
C           14.78419684783936       15.70396591408256       23.16590592723270
C           14.47881498762830       16.92123082939649       24.06763109593106
C           15.35565377040046       16.84448711591569       25.32019896977021
C           13.00883442039265       16.92419734856985       24.48700852442622
C           14.74820020996660       18.23514100830243       23.32153876711756
C           16.52907780290198       19.74801301922490       23.06629881385637
C           18.02543506697367       19.93149187874042       23.25103502548698
C           20.79775465056140       20.95813190853079       21.50957453101200
C           20.31152577463267       20.24784019307986       20.24261080240676
C           21.07014638467548       21.54693629563302       18.33282335506508
C           22.14031267522375       21.60271406157487       17.23640290953083
C           22.09827396725689       22.91017788022414       16.42763243172781
C           23.01327932720702       22.82299856321871       15.20665637611938
C           22.54113048491681       24.06099879677079       17.32952831851874
C           23.02288166842686       19.55255516301533       16.36882075970007
C           23.04646852678252       18.41035698814509       15.32659612709614
C           24.23313096663274       17.48590606090677       15.62057243611791
C           24.55954574015426       16.54913992900870       14.45494258483680
C           25.90946999742690       17.83892205893348       12.91688762103507
C           25.86772616729163       18.91823633076566       11.96459390450770
C           25.89449671452354       19.92365203214844       11.30194971583873
C           25.78654105241944       21.10894735057939       10.45492862636094
C           26.96442657935055       22.40881890673553       12.15166627999617
C           27.09021675006758       23.12006790798021        9.87908244367607
C           25.86509959458625       20.61697278287064        9.00107283154721
C           24.39875252382274       21.73762788011788       10.71294075405849
C           23.46515921334312       17.98180650401332       12.87601866535726
C           23.11688788438560       19.03639408491960       13.92789425257412
C           20.71955336497934       20.28436264073634       15.73055496726400
C           20.16237436925326       18.74604483132743       20.49484485213458
C           19.22793062774588       18.02573279437495       19.52270681903979
C           17.84261216157400       18.67818434831842       19.38239787791204
C           17.63049877738943       17.74020130832070       17.20080727857993
C           19.04867822512409       17.17061875843907       17.36697535907000
C           20.11299449274324       21.85664294789838       23.68451636807729
C           19.71947577147233       20.91102696800150       24.81672650689956
C           18.25102822571275       20.52066752998191       24.65931913959638
C           14.53563665735502       16.17820951979508       20.61637361077818
C           13.55992359156020       15.86532452771178       19.64319002069430
C           13.74176875736611       16.22243513385855       18.31270672087929
C           14.89306479808392       16.88838999081811       17.96961526521528
C           15.89784755846067       17.19703614069735       18.91410610933804
C           15.71145244448878       16.83253837144415       20.24168333755995
F           21.88371213383990       17.62979163636340       15.40433339436752
H            8.51268185475331       16.11814027361349       23.84425157970063
H            9.99680066409294       16.86900098876801       24.44612215521774
H            8.98048013226361       17.73558429284139       23.28700685471790
H           10.97059891096951       16.74621994374487       22.13433316018467
H           10.14687810277392       17.37702384569681       20.10587799166785
H            8.54127242149998       16.74631413799904       19.63534319945922
H            8.68855493779134       17.87312597242994       21.00567158742517
H            9.59425645513948       12.29905248522330       24.67520869416062
H           11.87366897578626       11.39124961778423       24.18318873630444
H           13.38014694145912       12.74674491582456       22.72087217179209
H           10.62697457153819       14.37949539354749       20.23020197591275
H           11.15495667125377       15.12371512952748       18.71575055873582
H           12.83179449800036       13.27418823886232       18.41413186817885
H           12.25065669771977       12.52244849334542       19.90379177349316
H           11.17719140852881       12.65395633743387       18.50742491052748
H           14.54910840475805       14.80533432762993       23.74001740586332
H           15.85553492912125       15.70056587537679       22.95429546390450
H           15.21543314131674       17.73119403201416       25.93412111970710
H           15.08601464086926       15.97153417505577       25.90851426865259
H           16.40591046848233       16.77261558849897       25.05119925244577
H           12.83311991106768       17.67547652842499       25.25391357640347
H           12.37578548384743       17.14810138460052       23.63569964803027
H           12.72489745136099       15.95286419830488       24.88304908652256
H           14.26174820928218       19.07644198644631       23.82627544266085
H           14.36997821457127       18.18710083077916       22.29636687758096
H           18.52035757093750       18.95877966064551       23.17474460149812
H           17.90599122940541       21.61496221705579       22.12407044564107
H           19.35522548731093       20.70370968193695       19.97632930252519
H           22.04840317681039       19.92838983481258       19.08970132113039
H           23.12181909482933       21.52601066406231       17.71849837660370
H           21.06739373361878       23.09699260110614       16.11429676454005
H           23.99778266816201       22.46356316507060       15.50213223539658
H           22.61550773283476       22.15189442803144       14.45110433385052
H           23.12694298136027       23.80840122547871       14.76319709419865
H           23.57221413118634       23.91968079772689       17.64704147341447
H           22.46778792750523       25.00451258108313       16.79575015564216
H           21.90995363425115       24.11605564680385       18.21267633088792
H           25.10018427799402       18.11235839166386       15.83502389516734
H           24.00592372959725       16.90885436310358       16.51762220725151
H           23.76230498317498       15.81734440138554       14.30976452193995
H           25.50098934819875       16.03376330834621       14.64972340140664
H           26.21590049002461       23.17739231626356       12.39804489556305
H           26.81443851986332       21.54761357677047       12.80093656278031
H           27.95247485796919       22.82154898843976       12.35458629925819
H           27.21375373632708       22.77922555302416        8.85527297148213
H           26.26136832153803       23.84252852081676        9.92391482612120
H           28.00199453649458       23.63788397028141       10.17405138782134
H           25.21338278818577       19.75608517052848        8.87502911004946
H           25.54486147105712       21.39568125612924        8.31512964135321
H           26.88321159765467       20.31860131219596        8.76765145390350
H           24.26320063627306       21.95487629255767       11.76963754615934
H           24.29832658817642       22.65868461678701       10.14500584595959
H           23.62141011368779       21.04783241637345       10.39725179403865
H           23.56973390855239       18.44450982745117       11.89588713665876
H           22.68186099073072       17.22146632549635       12.83876479142687
H           22.16169191152801       19.49562720243297       13.68335234125599
H           23.89194604849255       19.80467881660561       13.94023032594841
H           20.65503221024152       20.96296036197909       14.87959343107735
H           20.54407632113334       19.26634782311521       15.40900309828043
H           19.93795887518990       20.55219544930679       16.44082275673000
H           21.14968882002758       18.28474278874005       20.42661347095154
H           19.78178321044816       18.59034088183821       21.50123119278785
H           19.08558302907208       16.99351427964105       19.89053164075833
H           17.96913199219140       19.67044189890231       18.92946396171667
H           17.37103145303229       18.80231878190872       20.35436704302626
H           17.05420784157378       17.05377205341113       16.58510404169921
H           17.69370078827166       18.71528496926332       16.69925635345931
H           19.57825342671667       17.15407946510437       16.41469324377912
H           18.98280974808675       16.14502648700275       17.76190345009631
H           21.17449203554235       22.10013684646637       23.70299236618123
H           19.52607761543528       22.77914136218100       23.73885396096327
H           19.87654223516126       21.40195404855881       25.77544848668871
H           20.34715032628979       20.01985543113446       24.77467048642796
H           17.61646960075814       21.40230824161693       24.77583576638744
H           17.96486369740406       19.78445755335736       25.40917148125822
H           12.99852175947166       16.00081417390234       17.56233441858207
H           15.02282130419506       17.20629708421800       16.94747801045409
H           16.46181683718239       17.03936181018931       20.98907720336021
