151
 energy: -221.321598276876 gnorm: 0.004450181076 xtb: 6.7.1 (edcfbbe)
C            8.54803577018763       15.96580119733069       22.49004875067876
N            9.37952364666537       13.99523092886241       24.31167037539369
O            9.38598899926075       13.98755959312670       21.29984665053036
C            9.73652761423666       15.05807101676628       22.17400313414914
N           12.81885188156511       14.21461323592415       21.48770709850435
O           15.03203877021220       19.23303906461196       23.32238151430700
C            9.15863683327365       14.37674889598773       19.96363497541751
N           17.96571503520774       20.75778025469826       21.92807043033068
O           25.70525479509487       17.13240250775658       11.10123524963232
C           10.28021806018888       14.42858644246285       23.44280358448151
N           19.30873039029631       20.88729516180435       22.29904879183798
O           23.95037683915618       18.81363523313173       16.28093055420558
C            9.78292278387664       13.46242798290519       25.45149620274632
N           21.14021193669638       19.98818049437631       19.26559356768743
O           20.85139369271146       21.99166890380040       18.28951583743323
C           11.11861654428790       13.34442888711014       25.80292062535381
N           22.74372615977845       20.71466926554181       16.30275852353021
O           18.06268485290030       19.58137735758498       17.97645162918427
C           12.06764343441336       13.78376172945686       24.89745589688752
N           25.57374272219928       18.61809478549521       12.81139591622666
O           21.48609707645783       20.64665455807014       21.80624716878391
C           11.65983268881818       14.32800908286628       23.68113344856060
N           27.69275539388398       22.11408610306963        9.22543367130877
O           15.24963734222930       20.74145226768410       21.67989895736560
C           12.66023047655359       14.80687008350329       22.72217185606961
N           16.56114230785285       17.68524678100885       19.39006253660476
C           12.29398414645696       12.92676635380811       21.10735122974075
C           13.23136000273639       11.79917526227117       21.53785984494609
C           13.51585296583211       15.87759492499250       22.85618944296937
C           13.69943023652765       16.74280174107989       24.06338385073553
C           12.99440698202114       18.11904576334197       24.04720972664080
C           13.10987844122256       18.73835436537187       25.44259638079566
C           11.52163651035733       17.95669490679847       23.67559255010586
C           13.63702176338278       19.06672660808389       23.02701451662017
C           15.72444350992887       20.06214730431229       22.56261144421040
C           17.19210511744653       20.07517907116520       22.96203226333673
C           20.30872293713923       20.53988470288487       21.47292876182897
C           19.93397169138903       20.07429287279151       20.06361032262140
C           21.52047514849641       20.97761826388874       18.44929817963050
C           22.87271418351509       20.75908417688775       17.75927289441623
C           23.85102136808684       21.85372110142440       18.23804543403861
C           25.15635397146406       21.79587431130890       17.44803120441090
C           24.12236615065171       21.65521061565550       19.72852721778168
C           23.31219134497202       19.67509804948027       15.67428469445688
C           23.16999836694167       19.52737608945920       14.14358970292171
C           23.39228223486396       18.06699811147723       13.72313920660807
C           24.87427500673295       17.69095151776286       13.67057272661950
C           25.82962842383162       18.28109623572934       11.53208078895178
C           26.28405961715759       19.33259534545034       10.65913980340512
C           26.61445257050525       20.06796277031870        9.76380063341473
C           26.99657113337553       20.95051170693609        8.66307870998001
C           26.87335786740585       22.90323885259214       10.12300161509866
C           28.36106433406006       22.96717397946326        8.26481496878159
C           27.93684241990064       20.13082130988764        7.76492223663689
C           25.71157401962198       21.29277115449145        7.87641650993916
C           25.52664927055934       19.97318496572158       13.29965014635746
C           24.07808242572221       20.46781143198484       13.33664258015356
C           22.02461800246835       21.79605343605620       15.65817108171367
C           19.18010648572898       18.74707948303076       20.01133415232753
C           18.68097510456236       18.45672529202519       18.58338987108881
C           17.70166000111002       17.27321846727589       18.60213435648297
C           15.87967239701818       18.79150611278469       18.73913607368120
C           16.85104451206088       19.96210392658924       18.61011904051222
C           19.57474012917225       21.52487006551236       23.58190072662129
C           18.83316041196644       20.78751558602366       24.69249543212529
C           17.34680625510788       20.72738414809891       24.34814512871561
C           14.23828214173919       15.95944096871694       21.62943239987371
C           13.78557611816287       14.89755618629843       20.80626721573003
C           14.29798408601065       14.70759959587419       19.52732113468199
C           15.22558465274313       15.61098671543557       19.05474578244284
C           15.66961701230186       16.67608086956576       19.85077168088522
C           15.20983916549453       16.82796096969901       21.14245517176196
F           21.84022361559581       19.82304903980095       13.78293299744379
H            8.25514411917190       16.53844938465838       21.61209804319894
H            7.71186139685056       15.35361589277432       22.82103448667996
H            8.81717190163555       16.65656774323708       23.28359283271660
H           10.53731902715493       15.64668213122178       21.69663192646935
H            9.04095416636399       13.45387159826455       19.40027764552098
H            8.25223448025901       14.97908045468496       19.86412787809980
H           10.01250417639248       14.94249918098754       19.57277062894990
H            8.99354482289883       13.12703812353995       26.11015089067131
H           11.40399099719152       12.91971567796407       26.75148268856078
H           13.12210757901973       13.69968381296370       25.11648170865064
H           11.31186360396994       12.79549281919588       21.56519981699940
H           12.16889615119081       12.91598553808901       20.02214338474757
H           14.20852174462812       11.92245716130195       21.07772753111531
H           13.35230801236706       11.80307355307762       22.61887812159378
H           12.81731375874350       10.84168390785664       21.23705592255134
H           13.32304669634944       16.20070743338774       24.93243869401766
H           14.76794015640935       16.91569404439888       24.20434520293138
H           14.15342912990792       18.83066089148506       25.72996993628156
H           12.65734901208766       19.72684285925706       25.45774371987734
H           12.60013135707072       18.11674050882061       26.17345512404577
H           11.42538540630662       17.56150197180786       22.66819229930523
H           11.04053847312171       17.26600419510240       24.36346035390641
H           11.00553951980606       18.91172258973921       23.72180884510697
H           13.15493057684046       20.04934487766507       23.05356362863256
H           13.54273862468724       18.66987588751728       22.01122716938909
H           17.54584675718392       19.03900854436343       23.01458493740743
H           17.55134390158344       21.67357964599597       21.74566625102767
H           19.32619677972001       20.86307421382753       19.60534599151151
H           21.77237314085703       19.23052235589380       19.47755410931788
H           23.27864875395173       19.78455849044209       18.04688576734442
H           23.37577534121650       22.82893207264954       18.09257951847498
H           25.01542889874697       22.13914998804203       16.42685990615875
H           25.90329281485873       22.42590464611673       17.92304132860526
H           25.53242881743923       20.77394035419985       17.42167870717508
H           23.19960334098085       21.64389276008774       20.30554941288530
H           24.63851377401752       20.71223925994762       19.89488232126095
H           24.74767596849279       22.46017185478066       20.10397498028726
H           22.87134944610193       17.40721034264863       14.41656791800180
H           22.95536292761724       17.94451612248565       12.72896040205701
H           24.98838485219831       16.68672034277052       13.25964035386373
H           25.30386462830507       17.73303832849646       14.67316066018039
H           27.52974249618220       23.54404640294007       10.71123220495293
H           26.14891227433388       23.54304256758131        9.59746008195467
H           26.33405281104249       22.24248137636267       10.79869103110920
H           27.66903145085137       23.48672950677431        7.58470261051589
H           28.91448034479126       23.72193288063118        8.82207734452835
H           29.07200001138011       22.39237539663358        7.67939617133429
H           28.90269622585974       20.01239809879928        8.24795531870121
H           27.50750094379250       19.14451842631366        7.60410400243331
H           28.06490407785288       20.61130516927297        6.79925995886703
H           25.94323556256909       21.99307278792242        7.07718966455051
H           25.30025837860470       20.38697238760090        7.43909887638792
H           24.95978956090570       21.73182426727870        8.52819776087850
H           25.94971544216945       19.98414590808633       14.30848723205166
H           26.12488858549371       20.61535821737446       12.65150896776813
H           23.68017391016148       20.49473730915873       12.31896169924985
H           24.05231616159779       21.47822984357341       13.73974784875427
H           21.73371415947861       22.51236476908431       16.41978125764413
H           22.64261120243338       22.29791451249979       14.91689039979500
H           21.11535275198681       21.43421516287739       15.18035233721823
H           19.83381636122931       17.93429451829616       20.32595182612196
H           18.31803692010882       18.78845445969975       20.67227730333098
H           19.52666425076664       18.23764592107356       17.92352719360413
H           18.16568223565335       16.40387935183984       19.06842893911619
H           17.43508476910742       17.02635470907455       17.55923972741904
H           15.51107026147591       18.49963203646495       17.73839404001147
H           15.03144489186284       19.10281198677281       19.35056847642056
H           17.04688957233174       20.37124837983536       19.60739476068269
H           16.42914156888649       20.74396794890115       17.97715534950013
H           20.65366068831890       21.50930893408589       23.73361537569063
H           19.23478650508598       22.56583982531903       23.52722309817205
H           18.98592023177894       21.30639654616144       25.63768506696585
H           19.23148937941672       19.77613359455183       24.78321315897094
H           16.92833849804339       21.73637888129610       24.32063029462003
H           16.79894903105768       20.14480544655020       25.08693557116720
H           13.96813549319201       13.89066815951265       18.90382986305263
H           15.61338003322910       15.50382746093498       18.05244278945833
H           15.61221662174352       17.62477574258338       21.74237256999752
