151
 energy: -221.321692969828 gnorm: 0.009597830851 xtb: 6.7.1 (edcfbbe)
C            8.93993811230238       14.75391547580174       23.24134882618543
N           10.61194493005415       13.18525959863888       24.86210008894177
O           10.05271262947978       12.99713374412270       21.92345619148579
C           10.24666441152386       14.18290022132051       22.69380338894265
N           13.31745277732069       14.19295334033155       21.37924238663122
O           14.98573471033140       19.35005284612400       23.31610945212532
C            9.44218831665618       13.19552386480942       20.66864825188188
N           17.87874210741963       20.98529237428458       21.97085895781181
O           23.65829481837776       17.93861871518147       10.19835979296773
C           11.17774136149844       13.78102219761310       23.82224249415451
N           19.25604713092778       20.91577589655110       22.21334823210482
O           22.05941995806798       19.35580268534228       15.45631645691130
C           11.36837015629120       12.78395194780770       25.86824516809356
N           20.71399328287474       20.45483900485623       18.90230955638909
O           20.63129542148855       22.59495034166882       18.20187176793090
C           12.74363586965560       12.95471418154641       25.89838977468776
N           22.20472869899670       21.54354786486964       15.96702555915390
O           17.40389666079163       20.53292670181438       17.88807168561760
C           13.34095993379632       13.58520947060792       24.82174395215391
N           23.74607358646554       18.93807318147099       12.23750896022126
O           21.33691124034912       20.56373517853620       21.44982708979910
C           12.55789247278225       14.01248590949487       23.75041967678574
N           27.99677173835262       20.56285281837890        8.66734146167064
O           15.13403435090889       21.17388102932316       22.01384740404988
C           13.19573278741762       14.73078333276348       22.64059030915962
N           16.07624962122008       18.33307639458913       18.99121624940556
C           13.07945169456081       12.81148547076512       21.03944412468007
C           14.32763312877295       11.96372355766536       21.27975168655577
C           13.76032319435372       15.98525520934423       22.69096867397352
C           13.88013781381577       16.83667886384835       23.91594586906091
C           13.00756862237666       18.11258887576237       23.98763185321062
C           12.99537545331126       18.59981045358075       25.43938313767751
C           11.58295253364380       17.81670480213539       23.52248710119949
C           13.57314961494380       19.23645814991159       23.10537347116338
C           15.64827998398687       20.30195240088398       22.68159089590253
C           17.14280467068252       20.15196029083199       22.91590787609541
C           20.13084239266490       20.65559690667367       21.23156916271082
C           19.58622998315436       20.51994229018153       19.80468706515815
C           21.16605079945767       21.49540363525438       18.19724450203370
C           22.41317780179217       21.17977508133419       17.36616633063081
C           23.65519263110332       21.85172885696560       17.98872668009106
C           24.85195331720053       21.75036627931032       17.04672053047614
C           23.97633793091430       21.17485214786143       19.32084210337107
C           22.06133929249962       20.53476204533144       15.09671206566509
C           22.03904564456579       20.83907521698520       13.58726818153328
C           21.47087826521561       19.67578152181129       12.76335767082350
C           22.43444920287065       18.49000897407623       12.64531508677465
C           24.21439401442389       18.69392702126255       10.99658002128981
C           25.43881946290418       19.37793548263220       10.67461194006099
C           26.43054580872858       19.97843563788251       10.35121941426660
C           27.63901285295681       20.75043534606557       10.07692747905800
C           28.16321930496936       19.17656270821148        8.28244417645648
C           29.11424841749506       21.35686682511443        8.20154776478237
C           27.27549481442705       22.22149468939424       10.34753046853134
C           28.71642710115437       20.29302068576039       11.08378953730908
C           24.31695801380104       19.91303760187766       13.13349105054718
C           23.45916576737543       21.18056731730119       13.11758951814634
C           22.00334060173602       22.94615497863266       15.66039375637319
C           18.70467272100695       19.29257419636853       19.57795147980523
C           18.08284390462780       19.31783541740578       18.16785713349125
C           17.10992990102098       18.13852543456327       18.00641930499229
C           15.31976740249634       19.53889170728266       18.71824099774895
C           16.26568493476482       20.74287523118878       18.71005469281988
C           19.70784421554138       21.22767068869934       23.56360720920319
C           18.98984465316068       20.33642235347065       24.57236252506064
C           17.48051835010155       20.47452292822319       24.38232735074130
C           14.27323435918933       16.23828532875887       21.38389012030911
C           13.99275752013523       15.09030391818787       20.59850502966262
C           14.40904954122968       15.00412928633248       19.27471398029171
C           15.07928739351535       16.07577518968943       18.72159293960823
C           15.36171517645423       17.22053275913186       19.48126252334879
C           14.98316733831783       17.28554797497638       20.80935047494847
F           21.20484316342993       21.93864623508605       13.32096672143985
H            8.29798964015302       15.09090652706264       22.43246891723949
H            8.43203092983859       13.98660087322775       23.81728672424723
H            9.15941401605141       15.59865829321322       23.88700260031205
H           10.74727884440406       14.93554049072901       22.06228447815345
H            9.51196182117426       12.23719798632405       20.15225225265456
H            8.38768035475313       13.47670492431699       20.76760345637747
H            9.97306431899095       13.96608198450816       20.09297125887989
H           10.84053815274126       12.31108732935894       26.68567605930697
H           13.32316508612452       12.60934303726932       26.73720904246726
H           14.40971193555401       13.74652659713021       24.80051417203985
H           12.24970429064231       12.44125970895598       21.64598176267407
H           12.78635770624715       12.76077436321699       19.98806830370032
H           14.12899503268961       10.92883641847331       21.01775729711797
H           15.15512923897453       12.32834203079235       20.67488338075644
H           14.61605942635685       12.01222387367693       22.32662073362853
H           13.60999284603108       16.21666518599135       24.77323183098036
H           14.92220045431878       17.13794005487550       24.03326777430394
H           12.56377484874179       17.84475239001946       26.09337029594388
H           14.00783446547251       18.80785059286917       25.77448173578492
H           12.40519710819558       19.50804283465496       25.53124989979379
H           11.14824097941245       17.03264101476782       24.13586489826268
H           10.96218470572582       18.70573826692473       23.60070959007471
H           11.58300855688742       17.48427942640695       22.48730404176957
H           13.09932900480565       20.19445009386559       23.34182095425699
H           13.39480674526952       19.02377235087721       22.04670151212769
H           17.41206621829984       19.10795681490639       22.71356853025771
H           17.55045527154680       21.95047642867084       22.02750392166379
H           19.03089907375784       21.43213959321802       19.55816927042436
H           21.26037193707444       19.60968547708270       18.94616969256290
H           22.57526240579002       20.09737452474872       17.35928151435305
H           23.42937909342941       22.90435947198029       18.18645799293251
H           24.67998062634944       22.30896432678602       16.13230895604602
H           25.73563153083623       22.15216776556575       17.53245363055161
H           25.03884000077026       20.71031468522925       16.78838675777745
H           24.82461200086627       21.66814843675000       19.78764284429801
H           23.13560536248437       21.22400290735194       20.00994580841162
H           24.23295130972874       20.12896706976617       19.16538383641513
H           20.53896824952001       19.33566654927213       13.21452788758889
H           21.25206986775837       20.07114096489406       11.76921825012953
H           22.06703043318056       17.78626121764630       11.89651354955899
H           22.51503973705856       17.99018703364793       13.61417068173190
H           28.16434698517305       19.12028423605523        7.19421851636844
H           29.10365405501232       18.73540685756733        8.64791326219857
H           27.32777332514162       18.58634929835298        8.65635544470184
H           28.95398261766170       22.40553715076639        8.43112018510155
H           30.08020290761289       21.03643642567030        8.62008290347569
H           29.16754036138136       21.25114280993245        7.11824803178381
H           26.72855809393522       22.29279420494312       11.28449809627221
H           28.16968832487892       22.83306864222664       10.42644212903270
H           26.64638183034094       22.59830420447989        9.54607430299225
H           29.63689441239419       20.84821866764520       10.91984318507331
H           28.37250518112452       20.48070687563093       12.09750576494389
H           28.91569616937645       19.22934779403743       10.97882514265796
H           24.32508169689691       19.48273404182297       14.13948595144200
H           25.33795471267875       20.13972793717592       12.82938000167420
H           23.39880490551446       21.56859560852845       12.09818537340066
H           23.90819679889567       21.93950756092233       13.75481440325579
H           22.59437369144139       23.26142419347092       14.80353234256398
H           20.95059222872037       23.14782859465076       15.45212404597014
H           22.28595134885564       23.53143171123754       16.52855745186024
H           19.30248078531252       18.38734105203030       19.67890575681981
H           17.90027170649473       19.26904236699701       20.30744358410338
H           18.86840139942850       19.27164299984210       17.40601851424867
H           17.62514368901186       17.19783598872713       18.19692078922675
H           16.72461211631516       18.14397855573664       16.96997123059488
H           14.80662218930035       19.47194596628884       17.73976780885880
H           14.56982707241115       19.68739483257592       19.49678779584324
H           16.57185303304199       20.97863941135110       19.73544478575676
H           15.76443040257251       21.61338956939290       18.28325302525661
H           20.78702213855207       21.07134239093145       23.58438216742990
H           19.49396376470349       22.28388775310743       23.76637270198126
H           19.27146965574298       20.62949538336831       25.58395952257943
H           19.28809355779993       19.29926835673298       24.41404580466416
H           17.16558381374251       21.49555712526392       24.61152455836433
H           16.94380244516462       19.78883968977625       25.03655006928829
H           14.22089120636815       14.12102225235251       18.68632592415665
H           15.39892420150981       16.02976111724311       17.69119181170501
H           15.28637275519532       18.14270216428467       21.37921570234929
