151
 energy: -221.324480993349 gnorm: 0.006944212012 xtb: 6.7.1 (edcfbbe)
C            9.23221823686553       14.72217172627371       23.13362494080165
N           11.05330178305966       12.67373226258380       23.56782258365738
O            9.91904393048932       13.77626614784151       20.97228938509405
C           10.36198097985405       14.48376152202571       22.13167849414486
N           13.25784194843455       14.80952623868588       20.20424550440029
O           15.47248366647673       19.05554439271081       23.39251289256642
C            9.13996742312663       14.54073703199941       20.07878576822222
N           18.18059966399874       21.16112476927458       22.39673388168562
O           25.82792962104709       16.52089770517649       13.47436348209511
C           11.45757988705959       13.63499751584945       22.74839785411022
N           19.53132239114783       21.26077215232316       22.74384089544375
O           23.44706104852892       19.63095067253550       17.65534121295424
C           11.94464542927041       11.88907429126884       24.14450072956940
N           21.18941400945431       21.17441406915461       19.50352487786467
O           20.73152000268947       23.29794982970577       18.89098645148295
C           13.31077881188100       12.02312291632948       23.94880825926736
N           22.20909589392793       21.28545316955887       16.76775799257680
O           18.51738058058379       20.84188443545231       17.96092514248606
C           13.74172822984780       13.02080796675227       23.09536170571421
N           24.97912349913544       18.42981577541602       14.36141745655451
O           21.68542842220265       21.17455420758075       22.11078113141494
C           12.81135592276270       13.84842016355918       22.46257937623495
N           26.69397696039443       20.35973905542983        9.43824504800456
O           15.42302804729834       21.02967544347648       22.32512367573583
C           13.35042139002043       14.88695628364875       21.57445328491534
N           16.72083445751541       18.91174770804162       18.88110656542382
C           12.70912983737008       13.70186498912225       19.46180644440113
C           13.70337154350601       12.54287123630463       19.37449281540656
C           14.14930886078363       15.94635755875049       21.94261556434549
C           14.48080143012572       16.35041413592037       23.34315512017289
C           13.66815543272879       17.54087259614780       23.90431613369356
C           13.96189749463188       17.66618424025396       25.40139082523964
C           12.17171742656602       17.31876693726618       23.69187698415149
C           14.06622085809711       18.84641090749187       23.20677642024287
C           16.02072900794260       20.14935129667309       22.90342055604948
C           17.50495561699219       20.17337031331672       23.22731129126351
C           20.49493619816739       21.13650053315169       21.81944006382928
C           20.03873548455801       21.02631436400290       20.36320145960124
C           21.43186771559289       22.29714460791982       18.82091135840299
C           22.62353222734250       22.16268418006525       17.86339421634858
C           23.14477847205563       23.52472322972986       17.38722457385913
C           24.20385398971842       23.35864391148506       16.29945591850576
C           23.74260703951137       24.25804107147979       18.58711943970227
C           22.70745872204073       20.04147585525641       16.75813062810760
C           22.44256821259567       19.12828672278039       15.54238864869121
C           23.08083660302444       17.74942722567668       15.73629016606543
C           24.60545802300538       17.80232013304540       15.60816089153819
C           25.49650009109668       17.70128857158794       13.35281244064340
C           25.64380121828564       18.37879710405031       12.08964760144818
C           25.77165750956339       18.76007930668537       10.95492094255967
C           25.81293299910030       19.19224039196364        9.55973579784300
C           26.33258635513513       21.47061266079081       10.29548994888271
C           26.91697551793796       20.82038458180864        8.08321635890533
C           26.38437257621798       18.01080564181366        8.75737070483543
C           24.34946915609983       19.44576822069464        9.13261949837682
C           24.46611079943480       19.76910893167965       14.21230100814331
C           22.93468263553579       19.74875411569531       14.23088905139864
C           21.12401827111124       21.78913777130753       15.94958990832707
C           19.29928950115872       19.72813804301331       20.02886368945851
C           18.99004863673756       19.62720513033210       18.52240388104737
C           17.97340014721491       18.50235932773606       18.28171406413036
C           16.20709130540040       20.07971580441370       18.19572392143887
C           17.21770565748763       21.20857888201552       18.39833987119112
C           19.84154518961011       21.53765489410475       24.13962669959219
C           19.17591038633826       20.50236710872935       25.04266007817096
C           17.68246884927863       20.44760834968293       24.73236643188859
C           14.60872961416520       16.53938838644617       20.73029209909756
C           14.03409252188297       15.79744372601584       19.66678320691438
C           14.30280195149969       16.10990197045170       18.33767810545574
C           15.16886004445434       17.14765753315346       18.07620287399666
C           15.77991932698037       17.86284414486991       19.11745173300342
C           15.50468004152733       17.56616526241802       20.43429567180607
F           21.05201479299101       18.90217542045094       15.44158875593104
H            8.45467000054206       15.34385041841206       22.69749399686637
H            8.81153161308718       13.76475555661866       23.42492931987338
H            9.62505025485763       15.22108467511760       24.01417015902383
H           10.79106432956668       15.44561217896604       21.80736617094236
H            9.66194515280660       15.46319679559736       19.79948995332374
H            8.99995260004925       13.91760288512326       19.19822923428661
H            8.16334054826638       14.79184614117851       20.50168255262954
H           11.53941325677704       11.12622942133270       24.79551337253417
H           14.01028599563410       11.36970295879168       24.44406817470148
H           14.79421107679511       13.16899497806972       22.89970554651588
H           11.78985392669865       13.36525504434967       19.94773442807080
H           12.46306373892096       14.05957609744285       18.45961315081637
H           13.30466125508983       11.76609225300543       18.73073160468754
H           14.65358946622322       12.88622277734649       18.96859244702552
H           13.87715477399695       12.12171007802612       20.36314676948116
H           14.29600318969769       15.49702963032784       23.99568708389404
H           15.53897992611776       16.60537797594357       23.40033716102967
H           13.63829995824103       16.77008879331851       25.92391685755597
H           15.02706750509678       17.80052999079237       25.56817077847630
H           13.43456274898291       18.51864119659698       25.82256710468939
H           11.92986838123573       17.34456787818916       22.63256566571130
H           11.88210132919692       16.35007488989362       24.09073282185000
H           11.59523436419185       18.09011391812914       24.19578901852285
H           13.52420947698987       19.69932860197240       23.62948128816751
H           13.85661540777428       18.80510820180674       22.13328297428272
H           17.92998546326932       19.19138965830059       22.99083142226511
H           17.71104879773592       22.06351309134171       22.48320190569414
H           19.39412656328782       21.88702167709065       20.15198203128868
H           21.86349485696918       20.42283991186812       19.49088258125637
H           23.43164240610415       21.64063453378051       18.38782117711088
H           22.30211831398407       24.11162372291162       17.00992182584729
H           25.01516603212076       22.73150299507756       16.66378666208648
H           23.79318181656338       22.90603799493954       15.40226472448789
H           24.61300132048551       24.32955472700358       16.03724578616949
H           24.57893447223476       23.69560906361154       18.99724915109630
H           24.09734145036410       25.23955197978779       18.28794841424367
H           22.99672684093795       24.38516468218263       19.36804527837873
H           22.81095119836906       17.35706971214274       16.71762165704379
H           22.67095830710631       17.08775173283402       14.96880993623522
H           25.01615655288342       16.79152279465303       15.61712938392210
H           25.02341074526236       18.37337614188239       16.44119015185996
H           26.14396760324833       21.10687114376671       11.30247315512945
H           27.17442941825272       22.16183596555520       10.32864226135570
H           25.45067091383930       22.02304794943084        9.93960696211455
H           27.28483145449063       20.00913963966550        7.46350970158007
H           26.01860100063193       21.25273687926695        7.61735457502745
H           27.68295348009448       21.59398270508504        8.11707970387605
H           25.91764419973321       17.08620980849556        9.08953920877127
H           26.18579955082546       18.13225064957694        7.69625113164207
H           27.45574107555391       17.93698882470271        8.92242416674938
H           23.90837737596321       20.24759630728266        9.72015253066818
H           24.31163356153167       19.70934167796259        8.07855480479689
H           23.76590410845898       18.54243128295529        9.28724982284105
H           24.83810746518513       20.37263056909338       15.04592926531590
H           24.82521718773824       20.18842100681655       13.27281382275537
H           22.56691832734580       19.13103415055494       13.40836810822464
H           22.55189142684831       20.75822563268841       14.10407668126321
H           20.64834560129298       20.99749188359880       15.38385163298988
H           20.36538934352919       22.21871750321479       16.60455403039419
H           21.48022721391998       22.56672109089083       15.27386315741122
H           19.90846619717117       18.87012203065273       20.31065661348248
H           18.35890697314399       19.70300873387195       20.57305517375661
H           19.90697792745868       19.41925827192233       17.96075736367010
H           18.31547863746733       17.58053549937820       18.75305473382609
H           17.88647207318840       18.33446099132520       17.19174250194870
H           16.06453825268045       19.90263110791148       17.11323020322298
H           15.25170851579250       20.36330913666318       18.63935157002695
H           17.23072336569355       21.48387909638309       19.45931172939387
H           16.95691692284007       22.08180668894996       17.79941252678771
H           20.92695410671662       21.51786564194359       24.23626151909940
H           19.47657659361563       22.54219876825808       24.38158171830709
H           19.33953666118643       20.77293809939330       26.08447947054235
H           19.62383276174718       19.52438863609158       24.86314294454400
H           17.21146501874124       21.40173516324434       24.97977178938988
H           17.19498480652839       19.66066529386726       25.30605408085119
H           13.86179542606458       15.55124771150681       17.52600441961760
H           15.40163395171118       17.40797666534193       17.05372230855199
H           16.01089955561708       18.11737725651515       21.20865142959390
