151
 energy: -221.318346815850 gnorm: 0.006888588481 xtb: 6.7.1 (edcfbbe)
C            9.08359127573349       15.10858030735400       23.91310173423801
N           10.47465650147567       12.68773540759324       23.76057794376672
O            9.24412454023595       14.41579863833580       21.56166943064081
C            9.98301428273952       14.81468529997445       22.71432466422700
N           12.38182861698580       15.00413206687291       20.41390967956734
O           15.70668665813338       18.41672924830246       23.70955596333709
C            8.60078154101529       15.47262369393028       20.88519335904519
N           18.18670222005941       20.65097348256745       22.41294719338929
O           28.21957168179257       18.33515979819035       14.03369489825550
C           10.94385498773034       13.67911880044651       23.01722542100970
N           19.58725706935848       20.62457288022592       22.38148308380267
O           24.36404892043122       20.91394954818314       17.19098464699123
C           11.26108467305246       11.66452783635798       24.04584801373462
N           20.50589408758334       20.95971640125197       18.86732701541844
O           20.29567601075324       23.19559114907483       18.66311526631575
C           12.57339770500204       11.57083100449794       23.60930815748197
N           22.17819523129556       20.85660760597906       16.65583381464334
O           17.10649026487397       21.58126401663210       18.56183391931524
C           13.07504897805741       12.60362140842115       22.83679406486257
N           26.30012367482006       19.46501987728950       14.46317581864898
O           21.49389530344625       20.39046801967291       21.21882598005057
C           12.25420329453442       13.68380543755082       22.51742422705184
N           28.48616841855015       19.65932656166830        9.09079391329428
O           15.48701732686031       20.57430045982058       23.13039913545565
C           12.79321638061725       14.78439446215459       21.71002146911062
N           15.64144632352518       19.30709049227960       19.24901344547960
C           11.62324276944349       14.07763521403018       19.61044671756704
C           12.54620151728213       13.09806177828163       18.88717133247877
C           13.74291715990898       15.70965252920174       22.07889282409958
C           14.48050495734575       15.77043156728660       23.37850614570950
C           14.00602613542792       16.83340350518892       24.39713825658833
C           14.75905785201879       16.60633298101658       25.71117557193099
C           12.50150489276031       16.70684755660303       24.63575515926893
C           14.29243000987829       18.25522162964545       23.89577699630790
C           16.16775322814165       19.59135239862499       23.32500413925822
C           17.68472473399844       19.54632258153698       23.22799887589342
C           20.27586677055048       20.56344838965484       21.23030165567089
C           19.52395885925900       20.82546385007067       19.92342945951693
C           20.84898464022963       22.14938868121570       18.35189965228457
C           21.99719418255721       22.12929152590555       17.34085365956974
C           21.91295099675163       23.34603795003388       16.38558031706382
C           20.66294006141834       23.36828863929608       15.50672823461499
C           23.16582068983141       23.44336862933728       15.52030351685650
C           23.42774204994237       20.36388829628132       16.61299967291776
C           23.73272386193354       19.12164433883741       15.75480065050552
C           24.99540370643050       18.38401542934275       16.22112033864181
C           26.28487229624322       19.12226997767917       15.86593737862804
C           27.27245830477953       19.02303609616342       13.64761173215149
C           27.15565773966540       19.41091457918622       12.26547309310486
C           27.22002694123627       19.66001502874288       11.08850136851321
C           27.18058496245543       20.00092822268114        9.66875273931774
C           29.60990209610091       20.28696561862608        9.75666125237586
C           28.58941488094063       19.82464155398857        7.65576115917948
C           26.07884673188183       19.12578766811450        9.04465282975841
C           26.79118430965958       21.48981649055673        9.54652311700247
C           25.18160762105585       20.27419808282235       14.05023874216596
C           23.87418886274087       19.51210811884283       14.27671638928210
C           21.01237375895522       20.22884250171932       16.05814747145192
C           18.48778418004811       19.77266468885038       19.52311249011733
C           17.63038062160336       20.27859885766540       18.34756094083801
C           16.48158420031962       19.29855670065637       18.07270519140575
C           15.03545252356862       20.61180177013363       19.43438720095358
C           16.15086718618410       21.64225119604854       19.60866178462434
C           20.27185271749593       20.65837297173039       23.66782474226996
C           19.78715567676656       19.52211172168350       24.56508143942032
C           18.26414205662671       19.56391531010861       24.65510947689781
C           13.94280993483134       16.54374359560208       20.94054097464240
C           13.08133320054673       16.06883382036385       19.91877466097352
C           13.05042040803385       16.66807870210938       18.66383260019134
C           13.88281561170698       17.74232380608864       18.43288686309377
C           14.75357437149570       18.20921681954769       19.42734470570320
C           14.79386961064161       17.60905195600137       20.66791157335778
F           22.69140348624106       18.18435340432901       15.86079397321290
H            9.69643252541814       15.37676731474121       24.76771333082456
H            8.41069090662171       15.93251734319604       23.69265201790834
H            8.50659346444891       14.22074715681189       24.15062738188782
H           10.56815293078025       15.71247031904272       22.45588128635476
H            7.79590711953237       15.90967416012356       21.48322245364067
H            9.31885708872866       16.25845579528233       20.61870984244065
H            8.18058858998796       15.03596075329832       19.98172769940074
H           10.81159848133102       10.89415484648511       24.65733913667233
H           13.18154030990927       10.71923531805543       23.86508710910967
H           14.09101751534115       12.58124325003116       22.46966557945310
H           10.93010987887695       13.53730935323059       20.25839093348598
H           11.03947923861638       14.64947532113809       18.88525213714438
H           13.23998219033378       13.63571974412158       18.24517027452146
H           13.11895761206097       12.51992542194002       19.60911510300886
H           11.96071557011584       12.41481639975334       18.27979518754405
H           14.39048401944150       14.79748981430742       23.86520058247651
H           15.53627672695180       15.95258477896190       23.17088995183322
H           14.55174880083269       15.61218971702883       26.09604037565334
H           15.82982463901143       16.70027020098653       25.55309559531777
H           14.45274620546717       17.33492980913682       26.45731840831036
H           12.18047643028668       17.36984450101195       25.43490052599375
H           11.95262308394591       16.96450382794166       23.73414920502056
H           12.25492081647818       15.68405365308528       24.91019175597298
H           13.94843836225796       19.00044221460693       24.61976936149020
H           13.78926755955504       18.44556314664562       22.94387442356121
H           17.97323394807588       18.61145444159747       22.73330725115988
H           17.85360946673677       21.53580730181524       22.79924993674797
H           19.02935273426564       21.80020641218588       20.01292683351094
H           21.13260690384573       20.17476423982697       18.75352268855939
H           22.90750627689803       22.27038009639350       17.94294513382131
H           21.86777187993916       24.21527045892600       17.05020457894420
H           20.61568470000791       24.31979515257807       14.98541222427680
H           20.68782804545329       22.57951952539959       14.76150667353018
H           19.76589834214775       23.27498639252469       16.11463555223302
H           23.15661214687685       24.37217516205483       14.95759640845464
H           24.06355221287938       23.41462710526079       16.13362091604759
H           23.20392130225903       22.61643013984105       14.81486099159603
H           24.94980411168155       18.22859782503033       17.30046960631113
H           24.98794542850427       17.40744568649879       15.72946754150756
H           27.14817975005633       18.48577130392028       16.06837221457139
H           26.35983075090418       20.03675530834656       16.46160294356570
H           30.52237256953096       19.78742014137787        9.43236647993961
H           29.70672399475960       21.35946512704734        9.52647811717589
H           29.51547643466635       20.16356576096503       10.83422165692935
H           29.53305154358845       19.38224125676567        7.33798465344976
H           27.78339986053132       19.29568640609470        7.15693975151623
H           28.58463569383132       20.87829640473006        7.33811662008336
H           26.43378842059867       18.10231732255927        8.96096377460147
H           25.19572594506165       19.14492080884184        9.67952266758036
H           25.80195578595092       19.49757069452885        8.06138133010239
H           25.81225344137069       21.64841273252735        9.99283320588048
H           27.51448497535667       22.12132567468839       10.06060324569189
H           26.74750486404225       21.77693063508865        8.49734776927639
H           25.18293774052213       21.19240698992943       14.64984570474172
H           25.28968418706786       20.53466623500051       12.99572763307135
H           23.87828578095034       18.59113181875097       13.69042986033956
H           23.03533892546130       20.12611463530936       13.95238973639441
H           20.77661397112115       19.28436759715798       16.54873196639234
H           20.16772774137159       20.89725661308634       16.17432842550882
H           21.16857290594353       20.03088562924701       14.99971038175116
H           18.99118463434891       18.85604348239671       19.21835909322619
H           17.83125461397737       19.55857223790937       20.36235926682284
H           18.25112180523120       20.39277541314670       17.45392091456291
H           16.87048889911196       18.29131217171841       17.91800537551391
H           15.94827980624740       19.62426508033046       17.16124334907452
H           14.39512273916425       20.89046148747993       18.57563167468670
H           14.42404106424482       20.59527200593772       20.33909674878381
H           16.63346386505109       21.48016970791672       20.57925698708236
H           15.75036869694111       22.65635389645940       19.56956830411513
H           21.33994503550408       20.58375581447300       23.46550585095879
H           20.06139202576227       21.62716151109401       24.13763046968357
H           20.22983293228361       19.63154275784974       25.55479622790401
H           20.10606106970043       18.56669161564948       24.14524153986799
H           17.94157858155035       20.47842415453212       25.15965446446434
H           17.88714391900348       18.70874761168314       25.21444167245959
H           12.39197313547455       16.31081784684643       17.88676784057370
H           13.87087895576289       18.23058631833146       17.46964886307226
H           15.50221603651438       17.97374505327192       21.39183589638470
