151
 energy: -221.320471371655 gnorm: 0.008203570296 xtb: 6.7.1 (edcfbbe)
C            8.73850902860596       15.60000327863470       24.32555635877542
N           10.08401805052806       13.16956420314802       24.57152527388300
O            8.88892182921890       14.52834737289107       22.11954901730932
C            9.63405207500651       15.10248707852102       23.19206407943151
N           12.14699019830143       14.80103435477313       20.89181480453189
O           15.65162826182039       18.49576428888680       23.57808113101760
C            8.20100403937333       15.46279423454201       21.31772672453980
N           18.43039508347694       20.10388422346535       21.97066745988153
O           28.19150140271766       18.45187812641328       13.71965518871498
C           10.57603515853042       14.01942777073957       23.68139821328708
N           19.79522954904663       19.82267160881505       21.84155751853439
O           24.13406612774772       20.40339894977391       17.18202790037736
C           10.85515280944761       12.20680538403517       25.04444201970900
N           20.48849045564202       20.45325627028689       18.36169735718855
O           19.89845928509507       22.62661079256373       18.23259095950252
C           12.17883638485745       12.04184423098824       24.66802053775334
N           22.17719106372943       20.88764744268941       16.19252810071846
O           17.12257107763596       20.83687674140837       18.09530711698345
C           12.70011752454193       12.92242779333110       23.73770316716524
N           26.30120044728723       19.61547669705665       14.19142159952759
O           21.56244348201107       19.41640178898759       20.51514805075662
C           11.89284702582293       13.93070152768331       23.21128070288529
N           28.90958309695434       20.43237458410236        9.06442913178418
O           15.83009226497439       20.55456731128154       22.71058408386456
C           12.47647374351217       14.85205378290379       22.22747620390239
N           15.66020266777072       18.64573859545354       19.04556820135530
C           11.31983383834055       13.79861743357618       20.26825403241250
C           12.13941471299620       12.57807496998879       19.85442337779377
C           13.45286875671673       15.79675950452839       22.44792424138821
C           14.11725071499850       16.09252623882117       23.75511380709607
C           13.69442087883035       17.39214869098706       24.48002585502924
C           14.26904586486447       17.35604040910751       25.89914125277307
C           12.17240521418765       17.50402871584564       24.54185377093084
C           14.23555600719250       18.63320563606270       23.75933568086104
C           16.31204952895402       19.48538721877645       23.00690896091540
C           17.76576531075408       19.09548935586560       22.78963265270637
C           20.38251116170364       19.73732597353007       20.64002624835863
C           19.54913381391166       20.13381698759541       19.41840176540412
C           20.67975208987303       21.72647658838662       17.96844141977474
C           21.96536399124034       21.95519722804422       17.16230627737900
C           22.00593796843482       23.36061324241908       16.52716947792693
C           23.13729535999331       23.47500699750786       15.50683205204102
C           22.21681566209171       24.40996872007040       17.62133010096657
C           23.32009468550702       20.19092269858175       16.28365501660832
C           23.65276901306836       19.11677105726792       15.22591817505262
C           24.86458274712894       18.28089186169960       15.64959645850638
C           26.17301984743340       19.06149412622440       15.51862120598209
C           27.29403925452132       19.22343077107860       13.37317847067991
C           27.28104143694951       19.78274743885282       12.04577223114542
C           27.45318346488742       20.10622926665008       10.89959088910562
C           27.52009887412724       20.57250386643624        9.51664319587002
C           29.87194756854072       21.13442324534070        9.88877652742710
C           29.13637117667468       20.70867022804411        7.66172076482314
C           26.60178721608923       19.64424909385881        8.70276444329827
C           26.97013482909058       22.01414699140311        9.47079357556487
C           25.21420141280206       20.48114382993307       13.80799184363840
C           23.89323487387105       19.70808498095390       13.83368436143252
C           21.11566539577038       20.72549770002131       15.21934904872163
C           18.55815272878274       19.04045891854812       19.00704577576808
C           17.59103710100394       19.51280437689036       17.90312830385272
C           16.39362189825623       18.54909215655067       17.80301165219112
C           15.12719354081664       19.98628455958229       19.21495536182937
C           16.28780200877354       20.97741122169044       19.23326551763191
C           20.55206951549548       19.63799816940451       23.07203305994408
C           19.91845169021339       18.53576283561700       23.91323215341859
C           18.45012951201182       18.87792266229224       24.15146451522076
C           13.75892637773041       16.35303794310571       21.17071582180431
C           12.93561690869720       15.69486301712361       20.22230606161559
C           13.03052892921880       15.98431679136820       18.86521464571697
C           13.92922727872405       16.94828556517819       18.45767101741166
C           14.74290608902823       17.61648297536286       19.38380762170985
C           14.67147952438219       17.30376192991598       20.72713372963353
F           22.56716779149881       18.21951789721365       15.14562384754984
H            8.10199873471162       14.78611391914277       24.65845891185727
H            9.35396035143047       15.93013838299541       25.15630829225287
H            8.12509653283646       16.43207114870388       23.99224486431288
H           10.23231914509151       15.93708987396998       22.79112651055881
H            8.87877762283637       16.25236440685066       20.97315200322578
H            7.82564273284339       14.90317332548796       20.46397606546769
H            7.36140560458362       15.91513260122807       21.85174502893723
H           10.38441218591007       11.54442022884656       25.75450471766082
H           12.77873093993765       11.25097436693104       25.08718074874785
H           13.72423736275801       12.83624832896673       23.40453895001487
H           10.53624362163576       13.50454192627457       20.96929366944942
H           10.84519908852082       14.24676714890475       19.39222769435293
H           12.56082271032352       12.09063042401546       20.72611381594478
H           11.50792205956194       11.86749813072015       19.33257601811003
H           12.95123838847824       12.87427621214420       19.19870373528269
H           13.90772623118274       15.26331231882077       24.43370650476257
H           15.19608038673175       16.13650227864426       23.59390516043268
H           15.34820589301545       17.22935975606240       25.86709515978572
H           14.04494647106783       18.28136775333030       26.42413042986756
H           13.83739097268877       16.53085055590576       26.45991921877846
H           11.75534155764049       16.61360019926348       25.00468443252334
H           11.87526837916318       18.37236527753036       25.12409423061750
H           11.75675230910727       17.60060157235694       23.54216865472507
H           14.03967665906601       19.54052911823659       24.33887053643586
H           13.76957216965904       18.74979421221524       22.77631686409883
H           17.78401047018033       18.15251674498540       22.22983782781943
H           18.28909398376147       21.02758865199203       22.38256312061755
H           19.00460958908868       21.05716261014180       19.63747855567409
H           21.25556189055493       19.79890201378138       18.27363264280234
H           22.79200717841837       21.88021917864967       17.88270680297307
H           21.04315057273578       23.54827201614786       16.04329252464177
H           24.07368602835143       23.14701796700661       15.95537964286054
H           22.95066709418354       22.88101094052801       14.61732768611219
H           23.24692360623372       24.51301295995210       15.20465759938765
H           23.25545778895515       24.40408214696164       17.95338722009093
H           21.97613408775342       25.40113582958571       17.23865040222787
H           21.57208400815419       24.21204474642847       18.47533750782208
H           24.74202333862847       17.96165497660158       16.68454389581771
H           24.89341027889697       17.39672791761443       15.00971116236796
H           27.02378666056615       18.40041744080914       15.69291935795798
H           26.18642328335162       19.87125037189319       16.25377261245579
H           29.87452135945101       22.22267622140940        9.72274648711554
H           29.66763091599523       20.93724413392766       10.93957194786393
H           30.86624970795370       20.75299101993221        9.65571889678625
H           28.95338214133799       21.75797496301427        7.38670150174368
H           30.17921142775985       20.48278335778322        7.44339428658127
H           28.51662504360586       20.06307125397025        7.04685665962356
H           26.40429698638749       20.06389072161566        7.72083270827144
H           27.06905793064136       18.66931949599002        8.59601637918876
H           25.65509681090678       19.52341101615137        9.22263997411697
H           27.55850164212669       22.67120249704173       10.10601980468623
H           26.99404616886601       22.38771265117607        8.45075059979425
H           25.94209618142935       22.02348981589511        9.82048590409059
H           25.16862581703808       21.31319544063695       14.51879104024443
H           25.40322470491331       20.87296217891108       12.80800003969152
H           23.94219976068888       18.87758072810750       13.12639994364306
H           23.07748565592897       20.36423917718315       13.54088773166731
H           20.16383289941854       20.88288810190332       15.72535048140765
H           21.20179149821092       21.46931081467888       14.42602010386283
H           21.11445063303773       19.73068975553763       14.79025663835526
H           19.10246851940946       18.16895669870081       18.64405985647877
H           17.96795471137597       18.75737832798744       19.87676915179729
H           18.11521431391611       19.55754882550874       16.94311752289444
H           16.74254356970141       17.52486737118484       17.67045565430107
H           15.78770551664075       18.84364377122390       16.92819700991856
H           14.42959729604674       20.24192201115251       18.39682903759529
H           14.59430732273134       20.04929667955334       20.16485747612720
H           16.85890201671717       20.83502426117653       20.15749230074283
H           15.92088997928164       22.00386395462282       19.19460918833503
H           21.57344448535272       19.39440546627888       22.78802610545866
H           20.54735650048191       20.58315008431311       23.62290280618483
H           20.44958717888009       18.44827277599512       24.85959188163746
H           19.99618246232938       17.58669073788181       23.38144239239976
H           18.37164855719522       19.79181084045785       24.74488591492472
H           17.94405120368951       18.07390121808361       24.68309788322471
H           12.41646746559664       15.47402682130649       18.13871638928561
H           14.00760728689299       17.19222051368757       17.40879758390109
H           15.34596365757875       17.79986379475962       21.40099776588086
