151
 energy: -221.317127632395 gnorm: 0.008406268479 xtb: 6.7.1 (edcfbbe)
C           10.39383691230360       14.05528691924754       24.35256910567202
N           11.53039739718632       11.86731161335042       22.97310521359580
O            9.57841790903146       13.88459826074953       22.04706954641342
C           10.72513474387494       14.13475902287251       22.86181275857067
N           12.38744237325183       15.25982854690352       20.16044204461662
O           16.48637656869728       17.94679118102345       23.09431091346934
C            8.70442743525912       14.98662386462973       21.92024068100522
N           18.47881152785812       20.74708751816796       22.16568611788464
O           28.31438323829720       20.97723220856610       15.14164482060709
C           11.75829019605260       13.08376974449980       22.49895207273355
N           19.82196442662116       20.97486829579759       21.84696124011666
O           23.36691587197146       23.45479046507078       16.64740460168764
C           12.38974247936772       10.89791777198427       22.71607456632515
N           19.90602002048115       22.07206021830515       18.37218942405301
O           18.97358028379886       24.10393570537816       18.01372289979108
C           13.55193116011709       11.08953404187158       21.98525928122195
N           21.52429028981895       22.22737453298494       16.23825524180467
O           16.52544801433291       22.28402032887778       18.55483571691945
C           13.79538463976228       12.35347398882899       21.48096289318794
N           26.12363718896134       21.47975652395964       14.82961623118509
O           21.41946422930857       21.42956319854190       20.34203848619522
C           12.88344081805396       13.38235289662281       21.71775533716880
N           27.33989752884344       17.02578614287051       11.67413918435995
O           16.17428663646995       20.11736552672533       23.58244372883837
C           13.17001797651508       14.70443058756360       21.15076829766987
N           15.33148181878225       19.86297582066028       19.28679746204542
C           11.33214975169837       14.57987997989683       19.44994256385925
C           11.88778459267422       13.74609661374795       18.29648780814230
C           14.24082225109978       15.52364535156015       21.43020375945489
C           15.31351078719789       15.32193661405310       22.45040863591102
C           15.10144109365562       16.07348025088330       23.78672803681925
C           16.18517913515102       15.63250318360143       24.77388603347005
C           13.72306895535528       15.75140406771963       24.35977499823327
C           15.18722987793327       17.59280499556377       23.59020587842686
C           16.85274280985927       19.21245495253875       23.14233530848108
C           18.27427330773765       19.37752952926770       22.63264221154167
C           20.22372486517092       21.34325001169554       20.62137352166493
C           19.17322978557185       21.70982349908682       19.56795308748307
C           19.77368852024789       23.22958072668907       17.70859202816156
C           20.70698978025677       23.40369108662476       16.50326194998446
C           19.95625813954862       23.99282385538595       15.28592066220267
C           18.70836551550610       23.22290713188725       14.85363080104333
C           20.91985967669948       24.18328160365710       14.11705593302925
C           22.84945485383550       22.36209002421366       16.42185252350539
C           23.74654818804256       21.10555286343186       16.42172055950521
C           25.10898512620152       21.42516747941549       17.04628988315264
C           26.00994948267751       22.19580570487123       16.07872723630684
C           27.26906037942164       20.85750395149781       14.49872513314528
C           27.22708670856771       20.03612591487909       13.31519119948864
C           27.36391311075776       19.27480652272857       12.39232859719649
C           27.47183737446331       18.41490118707447       11.21480332741895
C           28.34162185499519       16.63340060915777       12.64716670893934
C           27.23863395123557       16.03350317533086       10.62261841953165
C           26.31121278782826       18.78306334804593       10.27715366440595
C           28.81537026186347       18.74253826939869       10.52973100831159
C           24.85924977033596       21.26778014065272       14.16931355691066
C           23.94047267792668       20.43023807584185       15.06020001364495
C           20.85017466340855       21.03190128891861       15.76435847460731
C           18.18671893528369       20.58465975139328       19.22913504593949
C           17.13212308783518       21.05010314372888       18.20904120702829
C           16.05800162925105       19.96591439619342       18.03968491852071
C           14.65262981466405       21.11165303683600       19.58134346143370
C           15.71206272641858       22.20573139177974       19.71235198765931
C           20.79667190067508       20.69277240981119       22.89374636424053
C           20.66427362592222       19.23930037793412       23.33875990735462
C           19.22573196560731       18.98756178554835       23.78148666466575
C           14.12584892987671       16.63858005463653       20.55132980526827
C           12.95813656796365       16.43968648851365       19.77362365931259
C           12.56351686546052       17.37576759114584       18.82234470270942
C           13.33460207932225       18.50720416502243       18.66344711539698
C           14.50580075404958       18.70116518096351       19.41008071044988
C           14.91456670729659       17.76501295963618       20.33397071666540
F           23.13099012040746       20.16942969606883       17.28555693826423
H            9.99127705990641       13.07063052506677       24.56926005151702
H           11.29468975011501       14.21215379193427       24.93718750642945
H            9.66438642242853       14.81298078439693       24.62512418208022
H           11.12082190201760       15.13189485029629       22.61371490392167
H            8.34485102764419       15.33980630441583       22.89142074505153
H            9.19803810918572       15.81592396824580       21.39600880272838
H            7.86213829788905       14.62818651046366       21.33248663130949
H           12.13362167942061        9.92934037288309       23.12442736781964
H           14.23651462500257       10.27524200541938       21.81355393957536
H           14.67794420296922       12.55505751462000       20.89149637980008
H           10.79058961203049       13.93358897852724       20.14359193245554
H           10.64030754237131       15.33323734838417       19.06651540786185
H           12.55265657814891       12.97414009075376       18.67842635724952
H           11.07256256003529       13.26860642664810       17.76169976332400
H           12.44399695491301       14.37590326548413       17.60609935463568
H           15.38810189699483       14.25766008044329       22.68222982683660
H           16.26492269916703       15.65015213136263       22.02790261607031
H           16.07647310632700       16.16259335790710       25.71607471358238
H           16.10551045045350       14.56631430708456       24.96879847789183
H           17.17243121769259       15.84004377208855       24.37082555927763
H           13.59226605301836       16.21495134908869       25.33356708937654
H           12.94222009972338       16.11466995870006       23.69799432163988
H           13.61192915632364       14.67519720587427       24.46655769196324
H           15.02032045182983       18.12020885409722       24.53440290226913
H           14.43789194671559       17.93469332296954       22.87068508270340
H           18.43611582400014       18.70256372330436       21.78626650530255
H           18.16413024466360       21.39891474288594       22.88567038987933
H           18.61980277472151       22.59461911208519       19.90028986346418
H           20.74136316163458       21.51891046885523       18.22866830924097
H           21.42030614347811       24.17875838665484       16.81804122621687
H           19.61745661421901       24.97647764808665       15.63033020325025
H           18.94960965160989       22.28425036530780       14.36687595441977
H           18.06551035155689       23.03696385886078       15.71122031160296
H           18.14858472063670       23.83140947861675       14.14767221649552
H           21.80404812945986       24.72909871419690       14.44041200547529
H           21.23742144018667       23.22502630974576       13.71258917907796
H           20.43543575399100       24.74627916663517       13.32473499346753
H           24.96264644935654       22.01108019867909       17.95436114396491
H           25.58106606107065       20.47685844898289       17.31408826700539
H           27.00877759599092       22.30284958867387       16.50351908674412
H           25.58526183528036       23.18576860405042       15.89224893285998
H           28.45024521322092       17.41208625210196       13.40008539193181
H           28.00391420074426       15.72097040443808       13.13819236830837
H           29.32664798519043       16.43512263845837       12.19751754658817
H           26.39433872856270       16.25384223709317        9.97604570556402
H           28.15024913759262       15.94774279405320       10.01272491535386
H           27.05996636257609       15.06921025422855       11.09656778658568
H           26.47521487679797       18.37543473239484        9.28425627421102
H           25.37746585678983       18.40068183041050       10.67888216895546
H           26.24410926926524       19.86533471010357       10.19606890752401
H           28.94822545921277       18.12005242528336        9.64741482300165
H           28.82325776725292       19.78743585092468       10.22642905223669
H           29.64676498390125       18.57931092751191       11.21344735612232
H           24.40420103843390       22.24624908452484       13.98099658292529
H           25.02877424222248       20.75534821461996       13.22164365324458
H           24.40376498084774       19.45733569703036       15.24667694068716
H           22.99219603075674       20.26810572708736       14.55482786121208
H           20.83644645573094       21.01586208734648       14.67317195704432
H           21.32831370466728       20.13171505149688       16.13123302277851
H           19.82488025786214       21.04612669236874       16.12510756569899
H           18.73319432952835       19.74552380034721       18.80042868553395
H           17.67054057010649       20.26179666400341       20.12825414846133
H           17.60652137367146       21.25620168577113       17.24399175378775
H           16.52530333602484       19.00647129816567       17.82554373050067
H           15.40402791429007       20.24208346128668       17.19665446131442
H           13.93364051853716       21.39300801069427       18.79084760329670
H           14.11865520077646       21.00843952125011       20.52738364379702
H           16.32295679839039       22.01068821727143       20.60218944911197
H           15.24749542076917       23.18885497818688       19.80237186018409
H           21.78435137003403       20.90018446613654       22.48287882610639
H           20.60367069631511       21.36754783874333       23.73425477339189
H           21.35580600191503       19.04112436965496       24.15678321231615
H           20.91713879641187       18.58347529147591       22.50414736959595
H           18.99426758675641       19.59514690009735       24.66031485639943
H           19.07532380123309       17.93928889550442       24.03567433252818
H           11.67772638044130       17.23256895218655       18.22167073682452
H           13.03871508093092       19.25520684151401       17.94139610930161
H           15.83722968603520       17.92205393885710       20.86546577578710
