151
 energy: -221.320661377953 gnorm: 0.008076475639 xtb: 6.7.1 (edcfbbe)
C            8.74891999053524       15.84046443433905       23.12858784771682
N            9.88540718097108       13.47328468357371       24.14354990852824
O            9.13296807665393       14.16252221149974       21.36802947126121
C            9.75770673215482       15.03085523035459       22.31515496883202
N           12.76293643194104       14.43360706655645       20.76708507313309
O           15.40786499425868       18.86475646162725       23.25103727929569
C            8.44479240537165       14.81740554908394       20.32458845663676
N           18.11740708746456       20.78982154867823       21.94525039539837
O           27.10783791961150       17.17646543447305       12.70676699598079
C           10.57553178177513       14.13058145857583       23.22115189670799
N           19.46245942171623       20.97386160158421       22.28576983178555
O           24.71005182718803       19.77070241526384       17.23592733211489
C           10.51339470060197       12.65972719535894       24.97230382288190
N           21.16263284150783       20.46899603639222       19.11794611639361
O           21.14159486314786       22.71705925853892       19.22014575539584
C           11.88485790229584       12.45656094313269       24.94069963922012
N           22.75132848933400       20.80625506722862       16.81839841454780
O           18.23178746060729       19.92956128573536       17.83739572296205
C           12.61297126159499       13.14114857287664       23.98654612729633
N           26.15181647130659       18.87291435917547       13.87671223220047
O           21.62824539393945       20.80923623418165       21.70902813567892
C           11.96395339891836       13.99521451490239       23.09196498853535
N           25.96138834778606       21.72261638918253        9.47337963395097
O           15.36014079435468       20.67340512924259       21.92716835701533
C           12.79729537296710       14.70843214081149       22.11604563456784
N           16.65723955230415       17.98568135102641       19.10139755208464
C           11.98971742525560       13.39253344477032       20.13566813749255
C           12.61259761990392       12.01232084547457       20.34573625027211
C           13.77428112487002       15.64148967103531       22.38928331083041
C           14.15415791792205       16.20381417309050       23.72229177186763
C           13.52764612416559       17.57152509105997       24.07915584907834
C           13.94804506307855       17.94412918497768       25.50324690510220
C           12.00377311718209       17.49050410915901       23.99967498171028
C           13.99327978236702       18.66755280936820       23.11358092432221
C           15.95806751019528       19.88441482912981       22.62167704029597
C           17.44074305776027       19.96850512226154       22.94258007688279
C           20.44505819454702       20.70090953268109       21.41344450896280
C           20.01025098941786       20.35067665873848       19.98367114652249
C           21.67335721885886       21.68033977212342       18.84837769993289
C           22.94805861898074       21.64278750279043       17.99918747663800
C           23.48845481510456       23.05445325880069       17.67745028796086
C           22.56553730228081       23.90919115548798       16.81179481415409
C           24.86574788375797       22.96210993032014       17.02301123691661
C           23.71317415824301       19.91544806088983       16.52901674136137
C           23.60959509574536       19.08672613591055       15.23517505728561
C           24.47158753036548       17.81860215356262       15.30118509831453
C           25.95998919179114       18.08912916063735       15.07313965062625
C           26.66077235411127       18.32360642872926       12.75872970774983
C           26.68294778858415       19.18005271767466       11.60141588824412
C           26.74010427608526       19.76506055278275       10.54994015369071
C           26.83552941635574       20.55081143233464        9.32339505286498
C           24.57316401829021       21.39744441379660        9.73881030153334
C           26.05174583114074       22.70269242991273        8.41088530496508
C           28.30651099953826       20.98960859430374        9.22462519636856
C           26.48664481242330       19.63544526467100        8.13219663411689
C           25.48711110166659       20.15043814268821       13.92593744789001
C           23.97396770515624       19.93953832865806       14.01182170762162
C           21.48369701439511       20.93844925313596       16.12269550929932
C           19.34224687845086       18.98727787505703       19.83059376841083
C           18.82781884995301       18.76812689090740       18.39308917464893
C           17.83384143101381       17.59499199535837       18.35395705106104
C           16.01581656867694       19.12584363736213       18.46738012663263
C           17.00598401485168       20.28658195979773       18.45534264576242
C           19.74062480287603       21.52897795625845       23.60186801137491
C           19.08495159738963       20.67084728211271       24.67976693760790
C           17.59631348065205       20.52481045932711       24.37111760415409
C           14.37895913345319       15.95855534109389       21.13888548157309
C           13.72872048240130       15.17864105228413       20.15174246083405
C           14.09763787042453       15.26429279570674       18.81191733567129
C           15.07938526012234       16.16532033489740       18.46246577679583
C           15.71979783987292       16.95587718200968       19.42935292299584
C           15.40173884481602       16.82797154344468       20.76321605015574
F           22.28838691259060       18.63059484665763       15.06640703105806
H            8.19392092975630       16.51970273099514       22.48673650092095
H            8.06204134400156       15.15873735120297       23.62204639932754
H            9.27353506794028       16.42246999934526       23.87975885092994
H           10.43195792843439       15.71288980355532       21.76915696287965
H            8.18467051316881       14.04042309576173       19.60876168415406
H            7.53085589377321       15.29972317916858       20.68063205667378
H            9.08669401055188       15.56429363720214       19.84310166161846
H            9.88465526946698       12.15658911381332       25.69468397668114
H           12.36373463126451       11.78628391566978       25.63578550681324
H           13.68443529410654       13.02043784055996       23.90911486444215
H           10.97346310634646       13.39685551158444       20.53870859510767
H           11.94177376247697       13.61940699675174       19.06732167177081
H           12.04563561115495       11.27023005544366       19.79042079929011
H           13.64541604756204       12.00137459610009       20.00132121000093
H           12.59147427966776       11.74379726471367       21.40008897193729
H           13.84901990065079       15.50040623029610       24.49747205384669
H           15.23948594932252       16.30919396753638       23.75724317178613
H           15.02994001240066       17.99834258281270       25.57731158868503
H           13.53295898068666       18.91053460970281       25.77918397969919
H           13.58771984971676       17.20164863306754       26.20909187410792
H           11.55360659673272       18.40207775838979       24.38126641303749
H           11.68181845921553       17.34820428985818       22.97248187119135
H           11.64765197886423       16.65227491284504       24.59313345615204
H           13.49074794749488       19.61561152821465       23.33015041612800
H           13.77839611966253       18.39604473016757       22.07623315715772
H           17.87074934833540       18.96225837651888       22.90082298171200
H           17.63745686344334       21.68765775506319       21.86541211777903
H           19.31431037394306       21.13913475012545       19.67607685384670
H           21.72081230654072       19.64444024179851       18.95659989665284
H           23.71649350116062       21.14352980707781       18.60585299276718
H           23.58510077550839       23.54384165255657       18.65224085896017
H           22.98822197927147       24.90651998074167       16.72918192862816
H           22.46976473386806       23.49787788100935       15.81034479454222
H           21.58362331255490       23.99533905516406       17.26818024953514
H           25.32376081753229       23.94661985781716       16.98260627866205
H           25.51926755800411       22.29541169803738       17.58034326881539
H           24.77410178583891       22.58466311720220       16.00681279595513
H           24.34270280121003       17.34455448031231       16.27350965437387
H           24.10120951728839       17.14065569958898       14.52970179258793
H           26.49381586002445       17.14558268529434       14.95309816821191
H           26.36562922874921       18.63896279564629       15.92612946732046
H           24.51524594984203       20.58158833226744       10.45574967757177
H           24.09610971966706       22.27631179283136       10.17009039888872
H           24.01622636389099       21.11225501281364        8.83406945886591
H           27.07619347389686       23.04183899084443        8.29534631490510
H           25.68186559992150       22.33023746482850        7.44382302519755
H           25.44184214214558       23.55877364848027        8.69649183472841
H           28.52135616990515       21.41232877368307        8.24706815318502
H           28.52168814161289       21.72430940567366        9.99604534185385
H           28.95189765735682       20.12635122658123        9.37309116130833
H           27.11745746505296       18.75040954894564        8.15504299277809
H           25.44706210500221       19.31716781531770        8.18045575751723
H           26.65470427330550       20.16300061025991        7.19656672117295
H           25.83902571093879       20.67992480376550       14.81690542974346
H           25.73811185908857       20.73066915249716       13.03753047026677
H           23.62604438264592       19.40634959904204       13.12460940538221
H           23.47591602935958       20.90707108449855       14.05208441005193
H           20.94977142606725       21.78932908999965       16.53364497038894
H           21.62576671725560       21.09135975623466       15.05543855439957
H           20.85969222422767       20.05562775487102       16.26566216457486
H           20.04610892476461       18.19298440023529       20.07661099792387
H           18.49200464291155       18.93534331220614       20.50680840445095
H           19.66605808226267       18.55850124429315       17.72080834001176
H           18.27271624251256       16.71209483592404       18.81991553856177
H           17.60926408046786       17.36747717283971       17.29593143083878
H           15.69461553265243       18.89495097243398       17.43474268803749
H           15.14004639613041       19.40943384243280       19.05479916023885
H           17.16871565560613       20.61442821029657       19.48842320904181
H           16.62251622885051       21.11916896254115       17.86528293670976
H           20.82406639145250       21.56505545919333       23.71255139158307
H           19.34221721961798       22.54967460335089       23.63517712544059
H           19.22426079460714       21.14194407854616       25.65077898600171
H           19.55709660337246       19.68793255694857       24.69676703861934
H           17.10611648098983       21.50025377460337       24.42972220999573
H           17.11654627421847       19.85102563057216       25.07999470190561
H           13.62619940783243       14.65705970372601       18.05429337693338
H           15.36078584980483       16.26979398720602       17.42435621557827
H           15.94212280574201       17.41335233384752       21.48740237092315
