151
 energy: -221.315936604800 gnorm: 0.009806768253 xtb: 6.7.1 (edcfbbe)
C           10.33395427635690       14.27229793923832       21.36418235989991
N           11.71311094600373       12.37041129241339       22.93686286852401
O           11.64158622495021       12.72687662878091       19.97827782947424
C           11.71598678168887       13.75837948788947       20.96310156810766
N           14.97691153016251       13.89841429698200       20.30094409174633
O           15.59201413570500       19.17058151433801       22.57709522453066
C           11.39356732107684       13.18676643714033       18.66901338677951
N           17.95844746248661       21.65462801819197       21.59150967025942
O           20.04561304413739       20.66195194557803       12.06651321681745
C           12.43371003274119       13.16744032963645       22.16185420136031
N           19.12135117557666       22.20725773572518       22.14084874026331
O           23.60319008046317       21.56084571999445       15.70036309751192
C           12.27084194652592       11.82133144648654       23.99999805799496
N           21.53666969048912       21.84641598857821       19.42592142213741
O           20.88354042966779       23.73074077420861       18.39203648854627
C           13.58427931168469       12.05879069989816       24.37431253507507
N           23.12083499115440       23.53462323679658       16.66814165338630
O           19.10732710948290       20.59762489865145       17.67682782380757
C           14.34580561213798       12.88909114993840       23.57178356691945
N           22.12687461899882       21.51340252943016       12.40949144357745
O           21.32485360101490       22.60884407480392       21.96819355254916
C           13.78083956889110       13.44960276114495       22.42748714649498
N           23.08125103986280       16.39353594610232       10.87382723645770
O           15.37563422124115       20.83047713547176       21.08507149741062
C           14.60751519103273       14.30278682934712       21.56634818825689
N           17.87765741800118       18.36466574690665       18.83424368403060
C           14.79156380006364       12.57619024075291       19.75647986983409
C           15.90520080451928       11.62811823519514       20.19688743426669
C           15.13916955750864       15.54033783179157       21.84982604643767
C           15.02204732930574       16.32222573522224       23.11988613894919
C           13.96390966763219       17.45064295040556       23.13144637416051
C           13.86778647630133       18.01136382936584       24.55227690871102
C           12.60347579586748       16.90572070613285       22.70279694853559
C           14.34377570329709       18.58623227415850       22.17264920673071
C           15.99311964307451       20.26662407658908       21.96190030030281
C           17.30690190085648       20.76175937968847       22.54480388788435
C           20.29055170893773       22.16178914745453       21.48468811556384
C           20.26383612392118       21.59763300090127       20.06155241442779
C           21.74460823557900       22.88841819207189       18.61519301692669
C           23.13582425765537       22.87637478335186       17.97082865166336
C           24.26057461591933       23.40374496933063       18.90068282820679
C           24.82857354385681       22.26540623008994       19.75071543859738
C           23.82702998298000       24.54222373990108       19.82233685764961
C           23.38225450154083       22.76965133411264       15.60359710151810
C           23.36427814865157       23.39161372629637       14.19572817597094
C           21.90985414727895       23.56058260870861       13.71265463625859
C           21.68561673771675       22.88694068640847       12.36002964291501
C           21.25111849090721       20.50325542138488       12.28140616419557
C           21.84684543895241       19.19433512054506       12.35000349679128
C           22.26486137584401       18.06705642915757       12.30923586941980
C           22.86263660217985       16.73322655794327       12.28734981999436
C           21.87202986110956       16.39834326362615       10.07590649983835
C           23.84649082214375       15.18675360861857       10.63748028037453
C           24.20580478301779       16.83893227165151       13.02723651550230
C           21.92478248708942       15.76970588830901       13.04269577259881
C           23.51530446057641       21.27844877651778       12.76483472931695
C           24.19844268224267       22.56508536075082       13.21048769310766
C           22.84927401944368       24.95636757876099       16.63413747986792
C           19.93407635379997       20.10981446320711       19.95078881418241
C           19.85119224639982       19.68413111087326       18.47103585419055
C           19.24331516016840       18.27850922455228       18.36381741458014
C           17.09936468027773       19.24025204441478       17.97482449085462
C           17.72877396583475       20.63118497976829       18.00841652824703
C           18.97687088708714       22.92119508273374       23.40124939186095
C           18.32638364496026       22.01532470638953       24.44239869297553
C           17.01812867804651       21.44984032274571       23.89252475051961
C           15.88327046808731       15.92268694858876       20.69586375311879
C           15.76724826867662       14.86831042482719       19.75424658484226
C           16.39089404219575       14.93995187822016       18.51296017115487
C           17.09953173184129       16.08108608616721       18.20351210509678
C           17.21638568821575       17.13224365858747       19.12315202912973
C           16.63866796397151       17.04466254478885       20.37133346923894
F           23.98730331478783       24.65144386125960       14.22728297654663
H            9.83592385462046       14.73095754286823       20.51418874152473
H            9.74040256629740       13.43906882675538       21.72753425554271
H           10.43338823561117       15.01196809688925       22.15149019473108
H           12.32079141585346       14.58353119059049       20.55516474830060
H           10.41643455220627       13.66640513891709       18.58144919480981
H           12.16779386803359       13.89462553058533       18.35131617147636
H           11.41945012603538       12.30532807301951       18.03509765538376
H           11.62684885481213       11.18485591325800       24.58257423450586
H           13.99447794502098       11.61072148125099       25.26325824755429
H           15.37892078074252       13.09630146005982       23.80991351506475
H           13.82339393517499       12.18776667422392       20.08009882200615
H           14.78108774739544       12.65809726736131       18.66674807699122
H           15.87408584063045       11.48470636035089       21.27352899124827
H           15.77769889388109       10.66466299600971       19.71459257203738
H           16.87780493809721       12.03253753682997       19.92585610795637
H           14.77316618480334       15.63461206747982       23.93022288578371
H           15.99387584322980       16.77065043718553       23.33554374513406
H           13.17135670971822       18.84396217048233       24.58389162979011
H           13.51747863840620       17.24545825224620       25.23702021137335
H           14.83998374809489       18.36199689618693       24.88795784636010
H           11.83621211840000       17.66897102077935       22.79600662817528
H           12.63774797114928       16.57673023936017       21.66869551521945
H           12.33099759240284       16.05785654392786       23.32605914801599
H           13.57921911921145       19.36889844561374       22.17351135760405
H           14.44795443152700       18.21344064625947       21.14979610173764
H           17.96875307892387       19.90403602320329       22.70843463768931
H           17.30577171731639       22.38732223079862       21.30943543580999
H           19.52682556947547       22.18465436235732       19.50036270691341
H           22.29028490241738       21.20871502779434       19.63444795681404
H           23.36040397528810       21.82864007189420       17.73437263176951
H           25.05590562459839       23.76194563706347       18.23699715131393
H           24.12157637631940       21.98644959930858       20.52985590259328
H           25.06169250725703       21.39598257763364       19.13829179512683
H           25.74430031489399       22.59661707294743       20.23495873002945
H           24.67906034345182       24.87206665174174       20.40426999713224
H           23.44501492836030       25.39254770133616       19.27058036505832
H           23.05752689980422       24.20254445761747       20.50896371582945
H           21.23076069752928       23.12539746540945       14.44765517448409
H           21.68502647442627       24.62232998509903       13.62109523619384
H           22.23107816818574       23.41297415643356       11.57227982706392
H           20.62261524556601       22.87951205402765       12.11244818368293
H           22.15401649439566       16.43963221019580        9.02410602973283
H           21.24887959594041       15.50458150745684       10.22778009892037
H           21.28113686790964       17.28122775258806       10.30864138702337
H           24.00629586130934       15.10253924217905        9.56346233151104
H           24.81700715370411       15.25873296277818       11.12010887267462
H           23.33824986721088       14.27168272267170       10.97741486491262
H           24.92068692092512       17.38042793450999       12.41508180340844
H           24.06171952998314       17.38402730162920       13.95743123444935
H           24.59599529217130       15.85328855850700       13.26292899068470
H           21.85033181221564       16.07724855911009       14.08255134617735
H           20.92816410059696       15.78387056689911       12.60788928572523
H           22.31772997494976       14.75716372048775       13.00449840148471
H           23.55626368609261       20.54948332870801       13.57817879851504
H           24.05190382391333       20.86667305057556       11.90384820877164
H           24.40610115210418       23.20877562705605       12.35518695944835
H           25.14682934063203       22.30772122169647       13.68183662093703
H           22.34154444732720       25.23601959649888       15.72173250477872
H           22.19184401472552       25.19294572442977       17.46253958078553
H           23.77370003870864       25.52573596093423       16.71474823383929
H           20.70716549087868       19.51878424525260       20.44139412014443
H           18.97479902650451       19.90806482972449       20.42096995163497
H           20.84587556404784       19.69720772636656       18.01143481834086
H           19.79244816273262       17.58154235632960       18.99907569869952
H           19.31691952638509       17.94246340089802       17.31298474836955
H           17.06664047057824       18.87079714249597       16.93249140545983
H           16.07902568081509       19.30150201764619       18.36216512881241
H           17.58178743185473       21.06186819588963       19.00626747236212
H           17.27000245049677       21.28220071713904       17.26210731052787
H           19.97168008571197       23.24363618187114       23.70661423686123
H           18.35026008323409       23.80399196847812       23.22693658557883
H           18.13359192987395       22.59211161631034       25.34648875004633
H           19.00626664522499       21.19985110661828       24.68968723432141
H           16.30009851512676       22.25793780420682       23.73277546874994
H           16.58487767369049       20.73046252145092       24.58542930458273
H           16.31680935343404       14.13459397521681       17.79860030059383
H           17.57158078795026       16.17029100944383       17.23581623309044
H           16.78648784962644       17.85168289655463       21.06757473723710
