151
 energy: -221.317293660059 gnorm: 0.009008280119 xtb: 6.7.1 (edcfbbe)
C            9.33284698454479       14.60582859775080       23.31787780800095
N           11.10037946651366       12.55289852076349       24.05551208571936
O           10.00022841343703       13.27790947847591       21.36094095561202
C           10.45638656470682       14.16647429888664       22.37893875135760
N           13.35549616933250       14.35822610885915       20.56836195103691
O           15.32744381670821       19.03292092381690       23.22454273334674
C            9.24874058803930       13.89601012035090       20.33965062469966
N           17.88379185780213       21.28825074389809       22.21962800971486
O           23.37522763120039       16.93973427563067       12.37983303667088
C           11.52965796574668       13.41892032089058       23.14809271073220
N           19.24868277993010       21.43782025439018       22.48196375871824
O           23.95637635069477       20.92452844329024       16.73298665732936
C           11.97817371936925       11.87085135674531       24.76830172451139
N           20.71103920781940       21.32158161624969       19.16808288685362
O           20.52275334545777       23.55983888778265       19.33511189988594
C           13.34950208073868       12.02038009362404       24.62825811504115
N           22.01566900797345       22.06471711706637       16.68121001417199
O           18.11918110573767       20.54347890844155       17.69736787527793
C           13.80653458968404       12.92014420469984       23.68405636636467
N           24.11061432527239       18.42211745565485       13.93624148001980
O           21.36662670011734       21.29182872501423       21.73797022780845
C           12.89197439460510       13.63671020604404       22.90994148409090
N           26.66045674350445       19.80374604876992        9.26614847506913
O           15.13432338226532       21.12321373885340       22.43971971142823
C           13.42441101301200       14.58651795038464       21.92466957353584
N           16.51050927947524       18.56753207164855       18.86018714101371
C           12.85942345707431       13.16084077189043       19.93732675876388
C           13.94701872133185       12.09178289095037       19.83700596567904
C           14.14488367987913       15.73048999063064       22.18270789112412
C           14.42547383302093       16.32558431585039       23.52478358028265
C           13.54781526994596       17.54118938684315       23.91127211398505
C           13.76943186926001       17.85293049220444       25.39403554527162
C           12.07129124445473       17.24083375715412       23.66434477768588
C           13.92420010377384       18.77630458274397       23.08355181148427
C           15.79957643743792       20.20620981043866       22.85938744581065
C           17.30331047771166       20.25759368956144       23.07328137104354
C           20.15930355777013       21.26047086968760       21.51573166043907
C           19.62304243577296       21.07971222377122       20.08977311499627
C           21.10935792026720       22.57481888747440       18.90778152523085
C           22.32768508047631       22.64921834424925       17.98576049491049
C           22.88842126736926       24.08566626157962       17.88240401095561
C           22.03598050011017       25.00809462562173       17.01468157627966
C           24.32589157570268       24.06497787071238       17.36911536372053
C           22.96772174451728       21.31048548192322       16.10894830781382
C           22.85808437684056       20.92771064556929       14.62018983497309
C           22.05451867061370       19.64050939368573       14.39112223945446
C           22.88408059552013       18.38986608131146       14.69844912468468
C           24.19701633504954       17.77657832345523       12.75552937159022
C           25.33123671742511       18.13660542182424       11.94262123633806
C           26.16105670872600       18.44798826801214       11.12729108416888
C           27.24539687368527       18.87395197540700       10.24328887258101
C           25.59295319404983       19.22714422234930        8.47245635402392
C           27.60993127730154       20.49009283898506        8.41511788280543
C           28.27183449096757       19.60345110094872       11.12607133732724
C           27.88925074619023       17.61572544735107        9.62750808120136
C           24.96371674117896       19.52738116528007       14.30150454777286
C           24.25544348812538       20.84281439712879       13.98474689591332
C           20.67880159846047       22.28142614449143       16.15391230349435
C           19.00835180088703       19.70105924528458       19.85288275468252
C           18.69860539003329       19.43564373180373       18.36731967363668
C           17.77717783834751       18.21282129003740       18.25283178011095
C           15.88150464129702       19.63610863602063       18.10638570880208
C           16.80730664360789       20.85031305976472       18.14241969455086
C           19.63466248332418       21.71141778183690       23.85870299168535
C           19.09128627299090       20.61835411624067       24.77497711652842
C           17.58327881336307       20.49419561074784       24.57011031416628
C           14.57772993585885       16.22078577945804       20.91601261376975
C           14.06497196702162       15.33774707882160       19.93283777519394
C           14.32099158070217       15.54093492678234       18.57990946822035
C           15.10704223944811       16.61277148026267       18.21850410686061
C           15.65818924143821       17.46839280087776       19.18470686787191
C           15.39987570178243       17.27443748772820       20.52380133372210
F           22.21143866895161       21.96139242084640       13.91860681887146
H            8.60801855498198       15.22082613099094       22.79199214817394
H            8.84378115290590       13.72477205750500       23.72037879398618
H            9.74842243175380       15.18533802314491       24.13589485259859
H           10.91174480076730       15.04731337698010       21.89827950458103
H            9.85254314534220       14.64951203661088       19.81381329019226
H            8.96981420336855       13.09860682787776       19.65119038391613
H            8.34120155389455       14.37017225092198       20.73088133934652
H           11.55808837260783       11.17652173981329       25.47972566868673
H           14.03378125237491       11.44911923315253       25.23397788827141
H           14.86419914123989       13.07451882424396       23.52663896049239
H           12.01432135408544       12.77876595712719       20.51332293356938
H           12.50603162974222       13.42628649502307       18.93884886007536
H           13.55938667283779       11.22106809902881       19.31738767068993
H           14.80660449446640       12.47495179178032       19.29167819129040
H           14.27064080783187       11.78911003198705       20.82978418603694
H           14.26942470565628       15.55525916114977       24.28270921146544
H           15.46994358525506       16.63862904641413       23.56312760901557
H           13.48852841435327       17.00103201250086       26.00738184913692
H           14.81375466873100       18.08625813483766       25.57994455448678
H           13.16487362934035       18.70476268659683       25.69524814164635
H           11.78301932062180       16.34210322842955       24.20203632059837
H           11.45078007923798       18.06631424809386       24.00363224594463
H           11.88549082587260       17.08494080648471       22.60511493715632
H           13.36939306071624       19.65840997981985       23.41716973135814
H           13.70901388548320       18.61566004761329       22.02291407195958
H           17.73419788116519       19.29419816811805       22.77952111659600
H           17.38886650324346       22.16953732854662       22.37061273708680
H           18.88434411537849       21.86798052970504       19.91490580477636
H           21.34417646688266       20.55959644336576       18.99472508476658
H           23.11160662115768       22.02334248755383       18.43181723481869
H           22.88217986613935       24.47379083759207       18.90710023544659
H           22.03183619326518       24.67039032122875       15.98188733003114
H           21.01804904681024       25.04787416409469       17.38876596209667
H           22.44724370032579       26.01353720227216       17.04224929247783
H           24.35926513688531       23.69228893205347       16.34721283440866
H           24.73893641630501       25.07023226726725       17.38031149903092
H           24.95172369029163       23.42306340312506       17.98541158248066
H           21.14821915685515       19.64339398958871       14.99588535575962
H           21.76258055343626       19.62340919163979       13.33810662538299
H           22.32592607138266       17.49557963608410       14.41576022206047
H           23.13784455837893       18.35003401041867       15.76062092476251
H           24.94180136608645       18.62885966438263        9.10837476024031
H           25.00574911575171       20.03943460477225        8.04307778710282
H           25.95985681006646       18.59669082730249        7.64870947025524
H           27.05606616734834       21.21575730272269        7.82006614707127
H           28.33498067246686       21.02963400411906        9.01677631907834
H           28.14068014112238       19.81901642730672        7.72250134584027
H           29.21164344059854       19.73302651172697       10.59766389085032
H           27.88172435056103       20.57371176967913       11.42010690516135
H           28.46075887161112       19.01507594248214       12.02057333169262
H           28.69155006236257       17.90079886879507        8.95162001615984
H           28.30150011223638       16.99440218381777       10.41776152566128
H           27.15167909976497       17.03286053160971        9.08114412121421
H           25.16576193181458       19.47100901584513       15.37378668743721
H           25.90063133514913       19.46925780177926       13.74864251888264
H           24.12330575407168       20.93196652890313       12.90397125127135
H           24.86070209149395       21.68000493577802       14.33208200885050
H           20.69028199205949       22.75391108414951       15.17578675021025
H           20.13088253489367       21.34013922328461       16.09366283743573
H           20.13777971541197       22.92867988781287       16.83562386295445
H           19.69294682253518       18.92728188402277       20.20122355952612
H           18.07773531057965       19.63097649213458       20.41225662057601
H           19.62591234225694       19.25218651058020       17.81554736665733
H           18.20539184958248       17.36544619776291       18.78678983373995
H           17.67062556448264       17.94509021388965       17.18694441412694
H           15.68393888459247       19.34498496993767       17.06044321951444
H           14.93631587597678       19.89614624435180       18.58488603833179
H           16.83576425638083       21.24515763013211       19.16418563828258
H           16.45031064285123       21.62796079128153       17.46541074189860
H           20.72320270389324       21.75620396085663       23.88421510668471
H           19.22616284714770       22.68658348552728       24.14559903830621
H           19.31458619286786       20.86933145010563       25.81094355965780
H           19.57698077186528       19.67168667718618       24.53407302406228
H           17.08558020095602       21.41344041032131       24.88896509315599
H           17.18212776912590       19.66285963241398       25.14781477323461
H           13.92458255927645       14.87744593514131       17.82574759020942
H           15.31826729939376       16.78952028046943       17.17351449034460
H           15.85998212721282       17.92807038322875       21.24437760911022
