151
 energy: -221.324707227243 gnorm: 0.008458289815 xtb: 6.7.1 (edcfbbe)
C            8.70767870863490       15.43343240773376       22.67133642507899
N           10.03358849568448       13.40047743017765       24.00953324332455
O            9.85692807401302       14.09965458961204       20.96993280588387
C           10.03800498092039       14.92174640537962       22.12309717524969
N           13.14304401425101       14.35058846740830       20.93680869635279
O           15.20796615203232       19.23962270982432       23.31486838563424
C            9.73303217712130       14.81370608698777       19.76242160349662
N           18.16695279212376       20.83832926371898       22.05880495094909
O           26.43001219069259       16.84963622835471       12.14180551433224
C           10.77420783438618       14.09086731274037       23.15668023565808
N           19.51913894671385       20.84273560733444       22.42429505257627
O           24.13826615683879       18.89603141601647       17.04183909607999
C           10.62714789633160       12.67221060332216       24.94036447598975
N           21.25477802705522       20.29338466501756       19.26641557379190
O           21.17907980869576       22.49285921951642       18.79807870421335
C           12.00236949473114       12.61176421928518       25.09380480391102
N           22.63748548270615       20.51640526139853       16.61397897983295
O           18.15191192699398       20.29120898882458       17.98222122743789
C           12.78604018873602       13.32610412502659       24.20361885667625
N           25.56791903792557       18.46268445002017       13.49063334895719
O           21.67061935921366       20.50279216631201       21.87161000518449
C           12.17667862660503       14.06953498348561       23.19744746301430
N           25.60320010589574       21.93828639974198        9.74273977399038
O           15.42742677977801       20.93385937300267       21.86227794234575
C           13.00334464483990       14.80309319713197       22.22942403206853
N           16.58745366829289       18.23799864380712       19.06456990599621
C           12.71101176548665       13.06546560672149       20.44752838742180
C           13.76166201968202       11.98797660211979       20.70920570727602
C           13.73493121698957       15.95342527765657       22.42160658333822
C           13.92500930884915       16.67701451273993       23.71843115672196
C           13.18972830397116       18.02554922350763       23.90659517804292
C           13.31185758548206       18.43102118242614       25.37910063914438
C           11.71674403987830       17.89558315440421       23.52597252613819
C           13.80408300865309       19.13121327239567       23.03952370157612
C           15.90449772162171       20.14032091149437       22.64353905012986
C           17.37778598178483       20.05786677811409       23.00698020826194
C           20.48823954919018       20.53738079375335       21.54581379819171
C           20.06610964835240       20.31489189491791       20.09011408831748
C           21.73521871970951       21.40734856765314       18.70259320812408
C           22.99873526654149       21.18325941945486       17.86470994816873
C           23.73842585299158       22.51621760676791       17.64686026063389
C           24.83437149410532       22.38497071054882       16.59469865267356
C           24.33583147209302       22.95283792850479       18.98378638302728
C           23.30933105562320       19.40358242951283       16.28634655039939
C           23.06427703165318       18.74734098763413       14.90664873706060
C           23.78694019978266       17.40055568327876       14.79407845334960
C           25.29515578267696       17.56061914572802       14.58480215263767
C           26.07084090873080       18.01463199155306       12.32362915135864
C           26.19281393948918       19.01448908592670       11.29370077611998
C           26.30975825114755       19.78493075074621       10.37382332843934
C           26.45855649947064       20.80947378948395        9.34423153060934
C           24.19306368682852       21.60738066161182        9.81266382296254
C           25.79704720822076       23.16433863207586        8.99716477776999
C           27.94059534063343       21.21835090352744        9.36310725085929
C           26.11083340465434       20.19379626661215        7.97587813487531
C           24.98891970748940       19.77088168019872       13.67190685996464
C           23.46486241758365       19.65116269461972       13.73848708414933
C           21.57993221467466       21.16091881746437       15.86030199463033
C           19.23716726500125       19.06102648604660       19.82490531889264
C           18.72353938263308       19.05315925790635       18.37016941741563
C           17.69292118070859       17.92828578934362       18.18885689188719
C           15.94055594263002       19.46641967124797       18.64163037156085
C           16.96039470472084       20.60386121243154       18.69095123111111
C           19.83279765659636       21.29731756355881       23.77187953963100
C           19.05730410089337       20.47661149258317       24.79824701324848
C           17.56873389203159       20.52742269618078       24.46066895425345
C           14.37219151230267       16.22592116738346       21.17459032889283
C           13.98859982534795       15.19617159198167       20.27686785197954
C           14.47291788589925       15.15728188230493       18.97393318191792
C           15.32372956930389       16.15908541806321       18.55891062423862
C           15.71164993568021       17.18517720769872       19.43233434867952
C           15.25717646964283       17.20595088430468       20.73596302202121
F           21.68517223750187       18.45775127439665       14.80312755788360
H            8.09036027389101       14.58675968469850       22.95069284025734
H            8.88688729761114       16.04672973591656       23.54956577890160
H            8.19359741127143       16.02996572120674       21.92293450328289
H           10.68155639800525       15.76862584322424       21.84293206328617
H            9.64286589307783       14.06652239516370       18.97807508657069
H            8.84732604647813       15.45232474791996       19.75733691580896
H           10.62054170802087       15.43113490394885       19.58455319626958
H            9.96137699175855       12.12525000108516       25.59320811372591
H           12.44378516342021       12.02167418881064       25.88013865723033
H           13.86340998354914       13.30629292064114       24.27614280522134
H           11.77048075070791       12.80232165731967       20.93438246380406
H           12.52675866392749       13.15610800085117       19.37525385088540
H           14.71075313558631       12.26626042220335       20.25689558611123
H           13.91153189292512       11.85794054348626       21.77845133391699
H           13.43377135920994       11.04258034427507       20.28702496585647
H           13.58893057608298       16.01635748509346       24.51968997581238
H           14.99229643935118       16.86236480945960       23.85294944359806
H           12.80653664825026       17.70750940885117       26.01282006244194
H           14.35731461980124       18.47653993246293       25.66976239209494
H           12.86186094097653       19.40628919490355       25.54334210007682
H           11.61579996336063       17.70661829894949       22.46020964033567
H           11.26463729217611       17.06958673205134       24.06933138757858
H           11.17659433740711       18.80789729923701       23.76425072715308
H           13.33066486394785       20.09615421231284       23.24963565049377
H           13.67260819183110       18.91328328599214       21.97533748323068
H           17.69680265331057       19.01268088830657       22.92336223553511
H           17.80527809158135       21.79124782445968       22.01805305656178
H           19.50147747463336       21.20182933784391       19.77997170370147
H           21.81542319952984       19.45310647458843       19.28334037508427
H           23.66385998621167       20.49538152432939       18.40004004844907
H           23.00640310419776       23.26700555228311       17.33613239044392
H           25.40998945960815       23.30470374005551       16.54838627597240
H           25.50663468054336       21.57037882600521       16.85632096836796
H           24.41886454426124       22.19281327236567       15.60991306693241
H           24.80709774661611       23.92636798046415       18.88497370424139
H           23.55960943878877       23.02237087340062       19.74238532475470
H           25.08207923232719       22.23570583638854       19.31934980305660
H           23.61437329586175       16.82004633167092       15.70042774354893
H           23.35060315163586       16.86683893449385       13.94696406050969
H           25.74329553878128       16.59304782163247       14.35032091098208
H           25.74694615736621       17.96062424247459       15.49708718197698
H           24.06680339721373       20.62567593426524       10.26485799394117
H           23.70008967670338       22.34838206628606       10.44250065045153
H           23.70069507639100       21.61221528139050        8.82933460544879
H           25.17910667705835       23.93365100282696        9.45939337104229
H           26.83397729124154       23.48234304765269        9.05724547336462
H           25.50422884853504       23.08354743710387        7.93842585487062
H           28.55670915305090       20.32524932272229        9.37323259079571
H           28.18963919739913       21.79879979717479        8.48133938880565
H           28.15555709261359       21.79701847925162       10.25600999424099
H           25.09316104292181       19.81189380492891        7.96864765741634
H           26.21660085791045       20.94284639217599        7.19524201442728
H           26.78740947294676       19.37025650703436        7.76315286374598
H           25.36972838801380       20.18448788540549       14.61046669174466
H           25.28197207970403       20.41848392440182       12.84614373596660
H           23.09313375481233       19.19143150130614       12.82073171068710
H           23.02434666278905       20.63955916394248       13.82968651810202
H           21.21083759538961       20.52895082021928       15.06118881144864
H           20.74422983787482       21.37130333842853       16.53087342650755
H           21.93552144566045       22.10977545836366       15.45475542138856
H           19.84328645491905       18.17026846066032       19.98823079471448
H           18.37978649520059       19.03757789362853       20.49328296545959
H           19.55824736163713       18.91554156299057       17.67413068861284
H           18.12598857676796       16.96971268365147       18.47661872095687
H           17.39950892152284       17.88961397637023       17.12587622639471
H           15.53780030360061       19.37034620540685       17.61648317266301
H           15.12120538189585       19.70147854844913       19.32218997534514
H           17.18528624741351       20.83359828129291       19.73841739530980
H           16.56285909976022       21.49544493139953       18.20408177304312
H           20.90983101459306       21.19651416211307       23.90211360099979
H           19.55920640473847       22.35620627913608       23.84945420233046
H           19.23419296309215       20.88181418935885       25.79352715540200
H           19.40743283714860       19.44403185269797       24.77498901367191
H           17.19814929852610       21.55060235964874       24.55885936881175
H           16.99756109773296       19.88443508968288       25.12845188931993
H           14.19229115322396       14.36588412426690       18.29500345133278
H           15.70216695684686       16.15228393091595       17.54757119267322
H           15.62430954922617       17.97639029281346       21.39022175051192
