151
 energy: -221.327670550802 gnorm: 0.009223359991 xtb: 6.7.1 (edcfbbe)
C           10.36357799938702       13.97453967435805       20.51603669594480
N           11.68061186044742       12.62480645342304       22.55898500744530
O           12.12369202615207       12.51820481700361       19.59062635405987
C           11.85456392802396       13.66238103042023       20.39327890987336
N           15.19412587831087       14.16465764628891       20.12770423058881
O           15.41401516436728       19.36233536352874       22.50015655090774
C           11.77878140243870       12.64005299907485       18.22950699002711
N           18.14563798062366       21.63533271578925       22.30664351984165
O           19.59781254856084       18.67410866033095       13.42853698156753
C           12.44919853456522       13.34236512506019       21.75232553955469
N           19.35484013845620       21.85035921996277       22.97576606158922
O           23.29828460580848       21.22677368751038       17.01356128219091
C           12.13211465854694       12.28251991893542       23.75209443867409
N           21.63823869808100       22.07371242676372       20.15634284187847
O           20.77363798360750       23.96496712611255       19.29025834246917
C           13.38681734430245       12.64006856341931       24.21746775011411
N           22.69297190695524       23.38510976459657       17.19726847393178
O           19.51760966738290       20.99334459415017       18.16857300999045
C           14.19330157033419       13.39605037281886       23.38680227754877
N           21.45591230568911       19.60800591712516       14.32625136706943
O           21.59523551308287       22.03998634035167       22.85886542788801
C           13.73479205086949       13.75930029101030       22.11975610525930
N           24.15992046079407       16.74829986677784       10.60680480842291
O           15.54693345262785       21.38668212528263       21.54066451392696
C           14.59556697926136       14.60685431969061       21.28579412222883
N           18.14770788442656       18.68394937233783       18.95755232246469
C           15.24234697799416       12.79700526742785       19.67645960153478
C           16.46674329401903       12.07579202086842       20.23904190903905
C           14.97424504105907       15.90150693661400       21.56175058444209
C           14.55470230303932       16.70020049559283       22.75470552865282
C           13.53236202734533       17.83422248369108       22.50238493515220
C           12.98160158964319       18.29951241940732       23.85324321903848
C           12.38971968136812       17.33773693359862       21.61768532545242
C           14.19748642507114       19.02910043859581       21.80856814887067
C           16.00652818349163       20.50947705886434       22.24005777211608
C           17.35241127128637       20.59404751162121       22.94701239930408
C           20.51705716024634       21.85447772972950       22.30422378993704
C           20.41363350462540       21.65024886635203       20.79319108648640
C           21.70087579527923       23.17032460681910       19.39349369733207
C           23.01793948647416       23.33651337689099       18.62335618316374
C           23.80877454458479       24.55769065313192       19.11930985154148
C           25.17216314022694       24.61782924740760       18.43551150777730
C           23.97677925562208       24.46842577135202       20.63627769842830
C           22.86516726567331       22.26002700222046       16.49490743191204
C           22.48355932791411       22.22353059191857       15.00629620559467
C           20.98280002226788       21.93151349367745       14.86956684657466
C           20.70437439031551       20.46775807225432       15.20612337184075
C           20.82650706540813       18.80308880088984       13.45728476833149
C           21.64839341309509       18.08920306990130       12.51774552647873
C           22.12442010133374       17.44810235125460       11.61608747382103
C           22.69651186712672       16.67744649326182       10.51566777030022
C           24.68815769400474       18.09800081839007       10.56898650288464
C           24.87561443479762       15.90066071376293        9.67540755798758
C           22.21106632482863       15.23070196323696       10.70601400896102
C           22.10182856862222       17.24993501974122        9.20962340077223
C           22.88597012657378       19.75761261375900       14.44877522174692
C           23.30013988244058       21.20744673482375       14.19653670562188
C           22.09502787555694       24.61719293371489       16.71936740195889
C           20.11270576598038       20.19309725028991       20.42968550661067
C           20.16382712948458       19.96584363397518       18.90706873313765
C           19.53628582933884       18.60531321875058       18.56693396037850
C           17.46089551321454       19.67067664455133       18.14280630168065
C           18.11415421760475       21.03224091665632       18.37614834685956
C           19.28399621887909       22.12369165573221       24.40336503370219
C           18.53172059447591       20.99502947813214       25.10357630830089
C           17.15654714353060       20.83121207630217       24.45639613130093
C           15.87332758139065       16.28106643885361       20.52222619868735
C           15.99266097362910       15.16674735801026       19.65132008836786
C           16.82442905432691       15.20836427865278       18.53695306001584
C           17.53103034406115       16.36592420334844       18.28755094497888
C           17.43781190745252       17.46813549185726       19.14896694489856
C           16.62990409893929       17.41955786613375       20.26703730168158
F           22.75706110163525       23.46600060014659       14.39752652832540
H            9.85065452651134       13.10715338708453       20.91841484949028
H           10.22856353825824       14.81374490808922       21.19223475360381
H            9.94414882336314       14.23643915521030       19.54851372683447
H           12.37994651288023       14.53092210443865       19.95849488190072
H           12.15844832639142       13.58075248591857       17.81013236962813
H           12.25570717888134       11.79704372523197       17.73254663035895
H           10.69879073830850       12.58243934284684       18.07814143485342
H           11.44975806431288       11.70048680275863       24.35572885666870
H           13.72042779629099       12.34079605625434       25.19738710551134
H           15.17961588848659       13.70567354235001       23.70139878293813
H           14.32725559457127       12.29135441060395       19.99092478961477
H           15.27576795820281       12.79665929050150       18.58290955868150
H           16.42135886282361       12.04516970578944       21.32634057417032
H           16.50301504991164       11.05818881767135       19.86289766947594
H           17.37811669676966       12.59279672821805       19.94566634540606
H           14.10528462249324       16.01475068586097       23.47591164248986
H           15.44164144905819       17.14271106375960       23.21198783679596
H           12.49979015000401       17.47638740364498       24.37214526308258
H           13.78679015223716       18.67907069401804       24.47633816635841
H           12.24982362387966       19.09077368135182       23.71223642500311
H           11.66476324366779       18.12707422976285       21.44767246885701
H           12.76963384157988       17.00388023410735       20.65646106745608
H           11.88925917622266       16.50055753213670       22.09647079952950
H           13.54098297765286       19.90375055478711       21.80038650923352
H           14.45385520517877       18.78166575690418       20.77371524902226
H           17.87274427159550       19.63909340467179       22.80703393756212
H           17.59971988349145       22.49619705855599       22.25866965750983
H           19.62963135218097       22.30957899512991       20.40893895104957
H           22.44809068203319       21.48370960976679       20.27849437853570
H           23.62941997767847       22.43978827273414       18.76417928261835
H           23.24244790378139       25.46409957802006       18.89266337542059
H           25.70524993071881       25.51132146333513       18.74687387266430
H           25.76683104096057       23.74774233176660       18.70605036951323
H           25.07048202284081       24.63649932552359       17.35248392939000
H           24.55420249472357       25.31599561555908       20.99324535414172
H           23.00980646692026       24.47894594776953       21.13646508492564
H           24.49468130894522       23.55481859295642       20.91779895964745
H           20.39822269021726       22.55960212295667       15.54131801978919
H           20.68783098771949       22.14089120051054       13.83880639875791
H           19.64251976073942       20.24428032846506       15.08298094246188
H           20.99513764262683       20.27155612977446       16.24297254898042
H           25.69892533931786       18.08108661514587       10.97465920762389
H           24.73328419203362       18.51491986368061        9.55256579289117
H           24.07667848159350       18.74977500812525       11.18881516311934
H           25.93576331021676       15.95994284062503        9.91996697442940
H           24.56072057266388       14.86766007495558        9.78711303317927
H           24.75121528290376       16.20662766420599        8.62613396017545
H           21.15124286333378       15.23809101043633       10.94898445217154
H           22.34963878683266       14.65266428965679        9.79743480500895
H           22.75280061403756       14.76391221418362       11.52385153215638
H           22.44576720972126       16.67204389246663        8.35587167123411
H           21.01720599992897       17.19704499038591        9.25582124235504
H           22.38874216499770       18.29127328904198        9.07882718803622
H           23.17871657535855       19.48191022429485       15.46738667674815
H           23.38262348478401       19.09682753113820       13.73688644417064
H           23.14856353917625       21.45963347526560       13.14443362371733
H           24.35836489377537       21.32553466252647       14.43407939733213
H           21.44423825224512       24.44276148569100       15.87129132758604
H           21.49172512648210       25.03175138549579       17.52387106450420
H           22.87043496063588       25.32690602982552       16.42516874030854
H           20.84266434912527       19.53614138053722       20.90038934099862
H           19.11802917606873       19.93474905930675       20.78326912325528
H           21.20207319875201       20.00211754784421       18.55733560151965
H           20.02767090187718       17.81208554930108       19.13240205275999
H           19.66532667035045       18.41164904538931       17.48739905591451
H           17.51714180118406       19.40986430454543       17.06999468672361
H           16.41255682333265       19.71944861255493       18.43907411390577
H           17.88378653544497       21.37224569320927       19.39264349492752
H           17.73869787512448       21.76789465033880       17.66270720984982
H           20.30809644703729       22.22013595730990       24.76252341982211
H           18.75791910990576       23.07412062142895       24.54944445698217
H           18.42848141346316       21.22870836145031       26.16196891364301
H           19.09834064696403       20.06753684482003       25.00532106555492
H           16.56133588493455       21.73444793252287       24.60865184829856
H           16.62420273871042       19.98583181742005       24.88851291944971
H           16.92164750405426       14.36288341292155       17.87319543063680
H           18.17025222807208       16.42561761088696       17.41896227464884
H           16.62767157206147       18.26591578001847       20.92929812697180
