151
 energy: -221.321270188661 gnorm: 0.008884129933 xtb: 6.7.1 (edcfbbe)
C            9.56002700220045       15.09686703020533       24.59008498718968
N           10.86583814266273       12.60636191375606       24.39891185033701
O            9.32800821714577       14.13913975928990       22.34385349057087
C           10.25325366222671       14.66429671358425       23.29658102575320
N           12.58917087631358       14.59505139172273       20.73850132901741
O           16.00539683687718       18.40885132526582       23.27325477861507
C            8.55055433989219       15.12001349698315       21.69383309761750
N           18.51466288411571       20.48545715768532       21.85187548722899
O           25.17885261700992       16.99038412379306       13.61249827691331
C           11.26146297384537       13.56744764461138       23.57771862263449
N           19.89763899050377       20.44046199487267       21.65795259683478
O           23.33096641762935       21.92591160406526       16.11193434129427
C           11.69525010615050       11.62251509759203       24.69442537452071
N           20.15693366056895       21.30700827456845       18.17432709145850
O           19.02555015190172       23.25860694336546       18.16729504546329
C           12.99084992186193       11.55103860971559       24.20666989469632
N           21.13521811251911       22.10113187968336       15.67728598774167
O           17.08829393012704       20.85717566426884       17.65836480921843
C           13.41293896646805       12.55060781143509       23.35031323926027
N           24.87374145290841       19.11490869364238       14.35978398763920
O           21.61980042871180       20.41773860412055       20.20978346828392
C           12.53784378574166       13.58100413091123       23.00308079429043
N           28.25200102906436       19.57191800752758       10.03399281516187
O           16.00909191221964       20.62051922864740       22.91199629051894
C           13.00917425673703       14.59772930213568       22.05108620425200
N           15.86344099550099       18.62235394040076       18.82521465220169
C           11.68187671755755       13.63820709704466       20.15428170831835
C           12.41555314063019       12.38923981276345       19.67216018842450
C           13.97482592434437       15.55784515609374       22.24504357292961
C           14.68813929741854       15.86090363583252       23.52291879002579
C           14.21704211315677       17.12166392975283       24.29011089126441
C           14.89678548173875       17.13272401615906       25.66097009632828
C           12.70094075995575       17.11857358466794       24.46425129828281
C           14.59420992712992       18.40091882560237       23.53620662620405
C           16.57320574231474       19.55028041126728       22.94217382741749
C           18.04741562754344       19.35161712073566       22.63629736990387
C           20.41362446924382       20.50385433260929       20.42302974430937
C           19.42178534460357       20.74244392121766       19.28335396799730
C           19.95753471481194       22.57429308612821       17.77346090848345
C           20.99733435545579       23.06468974362036       16.76363277684076
C           20.70340897433089       24.48469752142865       16.23901071053245
C           21.64413065941910       24.83438161482930       15.08719697287192
C           20.87933701692126       25.49464526316098       17.37158907191721
C           22.37547627175475       21.69624421805657       15.37004839478888
C           22.63260004721347       20.91142559155674       14.07472673965537
C           22.45515473959053       19.40067613805383       14.27085642685576
C           23.63663736280589       18.80158900272093       15.03497836839933
C           25.51900823418712       18.17662592909457       13.64143470620639
C           26.66545922280751       18.65158960322939       12.90618426947207
C           27.60277757076047       18.92697631720085       12.20325481054653
C           28.74454146478563       19.36658481636501       11.40483200325221
C           27.70798217882427       18.37332835075948        9.42737985417961
C           29.17659306243729       20.22504367094912        9.13127331506854
C           29.22282584213913       20.69414509626441       12.01195089178710
C           29.85758360374372       18.30746157732153       11.53804246937709
C           25.14207125430595       20.53024868178970       14.28148225705784
C           24.02391444211912       21.22625627718427       13.50654577852902
C           19.91590325716332       21.79795529314285       14.95692682668134
C           18.69733191777908       19.44395558516816       18.90718865773810
C           17.75570582621926       19.60530881476949       17.69669093225233
C           16.72736965840423       18.46014225137006       17.67556962003611
C           15.12921148767119       19.87300726768438       18.72059539494989
C           16.13789092733081       21.01757404498341       18.69743689297233
C           20.73540371994119       20.31351331503448       22.84124090394353
C           20.31535109238958       19.08239118857797       23.64068474031606
C           18.82414481487645       19.17113745652758       23.95532621365392
C           14.18667148052061       16.16795539893726       20.97221595630896
C           13.31021226854070       15.53330823775409       20.05549591565156
C           13.30466218893699       15.88335170285673       18.70906888195914
C           14.15477850077703       16.88378334782550       18.28597518681715
C           15.02063272638754       17.52398780269052       19.18327682222834
C           15.05417807928488       17.15357802948153       20.51142498915138
F           21.72390727119519       21.32582565809918       13.08272397759609
H            9.00996804684665       16.02215317211040       24.44873657308865
H            8.87844833676881       14.31052262213883       24.90177437248277
H           10.29965080479613       15.24585814780939       25.37093000594361
H           10.77866802542398       15.51754183644703       22.84058305514045
H            9.17637647061593       15.75037723227186       21.05536188061558
H            7.82888327712490       14.57966314533173       21.08595819138679
H            8.01822611459488       15.75305686605215       22.40500775482906
H           11.29906755968468       10.86311013955639       25.35405536981768
H           13.64151674823985       10.73459748984508       24.47863568684394
H           14.41025864401000       12.54059385884649       22.93448075299731
H           10.93033191486076       13.36443105741599       20.89948599008558
H           11.17260804078036       14.12029883127673       19.31660735693002
H           11.71308443581309       11.70716772872462       19.20152678221291
H           13.18509520683825       12.65616315027112       18.95157415287319
H           12.88457727117997       11.87933512943967       20.51055300918949
H           14.56479350471180       15.00729100043444       24.19296800577052
H           15.75202243743025       15.98071707898687       23.31130050412088
H           14.60797683755524       18.01638375426396       26.22479694406483
H           14.60616436019358       16.25440841081494       26.23112707518668
H           15.97690419897824       17.13181156657417       25.54767869674884
H           12.38404323087437       17.96803720672598       25.06403101597330
H           12.21029251514769       17.17854104316684       23.49742047618846
H           12.38619254888433       16.20566738467406       24.95909616866154
H           14.34219102219852       19.29232657859868       24.11565689813761
H           14.07118582849067       18.45335702581968       22.57692267936373
H           18.16307738454445       18.44609699647809       22.03013356953657
H           18.23242602411535       21.35369184242865       22.30964267795984
H           18.69796648963212       21.50256305015035       19.58629482031901
H           21.02921233887260       20.84401509290426       17.94610640536436
H           21.96463146394885       23.08430652603941       17.28318083762339
H           19.66504093554747       24.52208428832925       15.89570919127864
H           21.50310189030114       25.87110338933646       14.79661748048638
H           22.67901206316991       24.70112506091249       15.39842295711446
H           21.46823476518281       24.21062536006855       14.21306491945640
H           20.17460413266255       25.29043609222908       18.17226324661512
H           21.89053383783103       25.44493200313621       17.77002385052679
H           20.70006656177345       26.50060018624166       17.00345901905585
H           21.52798530383907       19.18623927909161       14.80217349657265
H           22.39877755681222       18.94566319438633       13.27920707667847
H           23.54164613938324       17.71547827555281       15.07883864971341
H           23.68125471748622       19.20960208682741       16.05009467636663
H           28.48517396188769       17.68234284155354        9.06514460284147
H           27.07910790266081       17.84924751424746       10.14547197991388
H           27.09134161807444       18.66687723858886        8.57841576608790
H           28.66030852714573       20.37999817891827        8.18394270930565
H           29.46229174775981       21.19647117031449        9.52287515430242
H           30.08199859188725       19.63356541537606        8.92883369134199
H           30.19954220058380       20.96591331119502       11.62276508142281
H           28.50922609175514       21.48228692162088       11.79038021625953
H           29.30227013835147       20.58780663349858       13.09170296267265
H           29.50204766362836       17.32887738515962       11.21611583657304
H           30.71814393250771       18.59211171866963       10.93591748613779
H           30.16545076905308       18.23669684654716       12.57808372423861
H           25.18413061442195       20.93196013090131       15.29641686990274
H           26.09491099998369       20.69537570210757       13.78085669357131
H           24.03159522102236       20.88390180652653       12.46903837415480
H           24.18496311480864       22.30420204993750       13.51876380020833
H           19.08602637564179       21.83575965162677       15.65913338816729
H           19.73450090212616       22.51949494005746       14.16105841862586
H           19.95825271096820       20.80668595851051       14.51963974747403
H           19.43063903724865       18.67311655619727       18.67073056347929
H           18.10333902464827       19.12346558625542       19.76065017076351
H           18.33729661392162       19.59377110161778       16.76965336066149
H           17.23817005779155       17.49850040770061       17.74387702891157
H           16.17608417184153       18.50488031298308       16.72028322903229
H           14.50785955840096       19.90373740129130       17.80732670916366
H           14.48127927654883       19.97928233464244       19.59272788637110
H           16.63165048877529       21.06959983103774       19.67507836690639
H           15.65025554249985       21.97264437744964       18.49375090659882
H           21.76725639844391       20.24123023413429       22.49880155527805
H           20.61832445447669       21.21712536051054       23.44887406998597
H           20.89444920816421       19.03229157171363       24.56217561948403
H           20.51930834482412       18.18474252707768       23.05366166506004
H           18.63047023453327       20.02551910267440       24.60756516589431
H           18.47913884725716       18.26649330911978       24.45447689428050
H           12.65098297090900       15.39064944380299       18.00547618367125
H           14.15452510715299       17.17598567312592       17.24630958213820
H           15.76262413870329       17.63508218941598       21.16152000758216
