151
 energy: -221.325234052266 gnorm: 0.005185411837 xtb: 6.7.1 (edcfbbe)
C            8.89452178685754       15.27866094978988       22.37275036247743
N           10.22652041654023       13.38549599545520       23.86525653145098
O           10.23339002338301       13.98705644464430       20.77180954161213
C           10.28264020210218       14.83032520632401       21.92086832154329
N           13.38592429118671       14.34601434356555       20.84197514935104
O           15.41353900456414       19.15403265629753       23.41015847094005
C            9.96559866661642       14.66045741824954       19.56331057149558
N           18.33758324530427       20.86016040698915       22.21156494423529
O           25.69768363173972       16.58194736645656       12.71477751523211
C           10.99135243090154       14.04451929592149       23.00848747806725
N           19.70106182074683       20.83364907955212       22.52889934252433
O           23.18725923753951       19.21082670389150       17.04915269518983
C           10.79244328416447       12.69386229115879       24.83996812409012
N           21.22704307944357       20.69735811903537       19.23419368652896
O           20.77844287815131       22.86841174335262       18.80527030921772
C           12.16416227597364       12.63165573916598       25.02932206689286
N           21.94811483578355       20.97432388554788       16.41318554139988
O           18.23648694788344       20.47406898428955       18.03691959204234
C           12.97238061150276       13.31357223020164       24.13627511015458
N           24.57347140258747       18.28749704079379       13.70587500608000
O           21.82398567521338       20.51700205887190       21.85575390850470
C           12.39166633542767       14.03051366227394       23.09230914013823
N           26.21314824267089       21.58482916781898        9.93873409669619
O           15.60505617546694       20.94337710668771       22.07458720161206
C           13.23898471552709       14.76433465240159       22.14497867754296
N           16.74388739887153       18.34216759300617       19.05485775470129
C           13.05375593579395       13.03483743422251       20.34409639222694
C           14.21876968731413       12.06550657758652       20.53633810019396
C           13.95753945117543       15.91720780069542       22.36982398035245
C           14.15845928111623       16.58470375351299       23.69488799314389
C           13.40564517440490       17.90722334036321       23.96641905869481
C           13.53326975003134       18.22883107870000       25.45858105977639
C           11.93112322390082       17.77655785296995       23.58937782086265
C           14.00255194412761       19.06831740919993       23.16109985337437
C           16.09719444922552       20.09629939915390       22.78590514629638
C           17.58072624412354       19.98489841151465       23.10053197694563
C           20.63002380896495       20.59842536433442       21.58775137001469
C           20.12320078750549       20.51549586533519       20.14773549331840
C           21.43904896481096       21.85595061931160       18.60185587584828
C           22.51514398110969       21.75516856010627       17.51412811641965
C           23.02144228181711       23.13642427136801       17.07346967647815
C           23.88094998566930       23.05086119496367       15.81566657861179
C           23.83985969803535       23.72944273990714       18.22018500381616
C           22.40982447071620       19.72764141570244       16.24409120488650
C           22.05751080550193       18.95581814170101       14.95485748090520
C           22.60732670555014       17.52633886487283       14.97724278120213
C           24.12781613919690       17.48443392664243       14.82163665389527
C           25.36380012837267       17.76801032037469       12.74890121183895
C           25.82881140252206       18.70389752825540       11.75829315967849
C           26.30214622890817       19.42291843992543       10.91595360544428
C           26.91429448940778       20.29419800594565        9.91776966795122
C           24.77956495126432       21.48935585060806        9.74750027672624
C           26.76794611616864       22.59667979118874        9.06313061162863
C           28.37674864696068       20.48390018091407       10.36031214580990
C           26.87077670649454       19.55638452881523        8.56385601085609
C           24.12100489697328       19.65677269399567       13.74293917115004
C           22.59146409739107       19.68893307742990       13.72254417881046
C           20.82219922611351       21.58236347691026       15.73021877410509
C           19.39372175604579       19.21380043856431       19.81635048322929
C           18.85108663838692       19.24091697764675       18.37326834518161
C           17.85529457086652       18.08979650599673       18.16758252198224
C           16.05871795647264       19.56228130293940       18.67081845062807
C           17.04523763018077       20.72407547156514       18.76889477966781
C           20.06574143686160       21.14445382516122       23.90362807088234
C           19.32027717166793       20.22779111358500       24.86942299704125
C           17.82104637209611       20.30256453552456       24.58734357940455
C           14.58722486287942       16.23502229461886       21.12877956468430
C           14.22167513490924       15.22080217304610       20.20705206473564
C           14.70929573023121       15.21349090900943       18.90515822780246
C           15.54159513495466       16.23916677679196       18.51197903885234
C           15.90081869190255       17.25863695292594       19.40470439089203
C           15.44410082879926       17.24664118356090       20.70809810310271
F           20.65926189823647       18.83269671216181       14.84524995688037
H            8.97624799608744       15.82626019425562       23.30603567001906
H            8.44060882638449       15.92247637147972       21.62468893755665
H            8.26971994109300       14.40490837921546       22.52918088755440
H           10.89803999748955       15.71125025924983       21.67458159306674
H           10.12463880053948       13.93209554584366       18.77383487528485
H            8.93592861634256       15.02139735551788       19.51656635981825
H           10.64962218979494       15.50465713244886       19.42616660362584
H           10.10741475774674       12.17936756680531       25.49954504274225
H           12.58396742924985       12.06883466122843       25.84688107676591
H           14.04822030133402       13.29188752081221       24.23267097482893
H           12.16730220172206       12.67565276108443       20.86893563648339
H           12.80858156592514       13.12306172631724       19.28385523860457
H           13.96079809825892       11.09046900247436       20.13414419238433
H           15.10492484812078       12.43509039502409       20.02556392977162
H           14.44832299081249       11.95804423308174       21.59349308891818
H           13.85113914471703       15.87917485640386       24.46921425348020
H           15.22591888235302       16.77988966644461       23.81910860689263
H           13.03480205406287       19.16688329341418       25.69039300258279
H           13.07790358536231       17.44257951834251       26.05458167457319
H           14.58032329079244       18.31469037436607       25.73675567221076
H           11.82631296783673       17.62266286702378       22.51843448102100
H           11.48889413176913       16.92796728526614       24.10487301244285
H           11.38373873699019       18.67475329298868       23.86295957058040
H           13.53874965866703       20.01793696630519       23.44674266149954
H           13.84552506108850       18.92376783818930       22.08812218107692
H           17.89742078821103       18.95478277913949       22.89981669924494
H           17.97128690490381       21.81143340747939       22.27799233184352
H           19.45665035410981       21.36914717724521       19.98399756163111
H           21.86184304151029       19.92047980788928       19.09843426214515
H           23.35745898764159       21.17457250043769       17.90528272690494
H           22.15728594336482       23.78183566219496       16.89522997486202
H           24.32964188794981       24.01978180942627       15.61679011422130
H           24.67874265700328       22.32570653455502       15.95669942669212
H           23.30099405315466       22.76206388553874       14.94576890686283
H           24.12121076155510       24.75336960373840       17.98908692967529
H           23.26067638721709       23.73117018601789       19.14170582230096
H           24.74531681665117       23.14576596799265       18.38021850625080
H           22.33733535322563       17.04672315428609       15.91822928403377
H           22.12989942559728       16.98443687080097       14.15890563071731
H           24.45848251266909       16.45841004222954       14.64974701475941
H           24.59067223938782       17.86285328082369       15.73896180654249
H           24.49322474286453       21.31451072450679        8.69977566987657
H           24.37914781810612       20.68269141807133       10.35720390628915
H           24.33047735789716       22.42847360613126       10.06914965550144
H           26.28057566460546       23.54273944883392        9.29634096848243
H           27.83186744342800       22.71047187581740        9.24275632796447
H           26.60260213392799       22.38344589794553        7.99665837999500
H           28.78301974184414       19.53100295299167       10.69094411740904
H           28.98507095220834       20.84719464118871        9.53707285501793
H           28.42113737826175       21.18855629620094       11.18584810478294
H           27.37455147139218       20.14362223368924        7.80055860786416
H           27.37393239837558       18.59775602549731        8.65821473944190
H           25.84317176161219       19.37559236998697        8.25756345841372
H           24.48718584547033       20.12242923608615       14.66450381922755
H           24.52649704731020       20.19779953226191       12.88853508990468
H           22.22255529931359       19.17347151911469       12.83380621184121
H           22.23914194627915       20.71673500611857       13.69630901492128
H           20.27833424933067       22.19410466674687       16.44843797112616
H           21.14689221106092       22.22171612553102       14.90948221983405
H           20.13437124117685       20.83214114641724       15.35727821814549
H           20.07769008810883       18.37101866062414       19.91704962754479
H           18.55698087152432       19.07937497043030       20.49830697387439
H           19.67531690070536       19.15102044222952       17.65751862541965
H           18.31969209833748       17.13905289736124       18.42955021902181
H           17.56124181285585       18.06956585613620       17.10330116704293
H           15.66684783252478       19.49014442794692       17.63976138304715
H           15.22771470898598       19.74389983959573       19.35361445856573
H           17.26972006815758       20.90905607905631       19.82562042822488
H           16.62332364758000       21.62816054309346       18.32836350317918
H           21.14514733938652       21.02228034708887       23.98331192385492
H           19.80762868230251       22.19110832421904       24.10018270716271
H           19.52901961777010       20.53806418994415       25.89217525071725
H           19.66963661176726       19.20316853335901       24.73830562447942
H           17.44781229762481       21.30573430558513       24.80494472563873
H           17.27613536314087       19.58856506497609       25.20222404815235
H           14.44104961163722       14.43300073269782       18.20995873208424
H           15.92433993331183       16.26037482796907       17.50259632082473
H           15.78314652980694       18.02172826965156       21.37204057667001
