151
 energy: -221.316082015151 gnorm: 0.007373224555 xtb: 6.7.1 (edcfbbe)
C            9.70699850474999       14.33456530418731       23.10309306073582
N           11.47030282403047       12.23060704938508       23.61984111423295
O           10.48012865269892       13.38661142532342       20.97226473331158
C           10.87921320859385       14.06583285642014       22.16099185102289
N           13.63544310695066       14.39017438261459       20.34110701814265
O           15.70836570413392       18.73368419101173       23.55154361292817
C            9.81740564493516       14.20040827752174       20.02944474803357
N           18.02118159213395       21.18071626716058       22.33451454025133
O           22.97377124645830       16.88324038237641       12.59546638220004
C           11.92311196881690       13.18633505093983       22.82231524578071
N           19.40405228229076       21.37137328035311       22.41383522889307
O           23.46794638466953       21.43860714020336       16.52833311415853
C           12.33022081783460       11.42724313595469       24.22121047567519
N           20.43280969590557       21.87479414241937       18.95056658676759
O           19.87294567588870       24.06140710285749       18.82751210925873
C           13.70412443649850       11.54159966170389       24.07504385102111
N           21.48155418437863       22.46780157283137       16.28701848621123
O           17.11302678553312       21.65780997640374       18.35418579700473
C           14.18713070337238       12.53561784083326       23.24384354549196
N           23.56398370842193       18.54496516615662       14.02900173492238
O           21.39436245340756       21.53720395414124       21.38534856244713
C           13.29208423437916       13.37711266655793       22.58488832104130
N           27.12739711758383       18.39960001936764        9.65383894578124
O           15.33822553033193       20.79319586699702       22.74862210342146
C           13.80156014945904       14.43724539982201       21.70721519269944
N           16.09660695298226       19.15333965114536       19.04625359368877
C           13.21781828266805       13.24295156136521       19.57438904508529
C           14.42333944078585       12.42951707240594       19.09819845372548
C           14.47130103668995       15.58310902029988       22.07363010133720
C           14.89837463935897       15.95526992091970       23.45860589645981
C           14.07579108625216       17.05394411140174       24.17220603861212
C           14.51532099495716       17.11286770046348       25.63796339004788
C           12.58384847111251       16.73489922591711       24.09282034194658
C           14.30448972251269       18.42616353896236       23.53297378872090
C           16.09165164933061       19.91479450538574       23.10742885216135
C           17.60647490612310       20.03824114194928       23.14187489759454
C           20.17137837825188       21.45070173209272       21.31510197077883
C           19.45954373007285       21.51761023958953       19.96114714969617
C           20.58705316021011       23.12556639635212       18.49537680431792
C           21.73758041673153       23.25511521738373       17.49029817088786
C           22.10334105763459       24.72360912173510       17.17337787926942
C           21.05706926892323       25.47855929343079       16.35574317561399
C           23.45040951947291       24.77891669771164       16.45487254826040
C           22.48658260270625       21.69895190704956       15.83463177400302
C           22.45574152372387       21.19402278987715       14.37640942647446
C           21.58184104515550       19.96216536476827       14.10874407932680
C           22.24371824767700       18.67199320970503       14.60062539271011
C           23.79045543273881       17.71804772035936       12.98659451254727
C           25.07842619061000       17.88416997489870       12.36249970591763
C           26.09950285122265       18.04139316778617       11.74409536692496
C           27.37652783805721       18.34336661319259       11.09915421306943
C           26.68684783153043       17.13659853670629        9.09244891271559
C           28.18981707539241       18.98396965922427        8.86051197901590
C           27.81391849068405       19.71943868720598       11.62869480574550
C           28.40602552637098       17.28001290462166       11.53600108642900
C           24.44387758766517       19.62520055070841       14.40330361015934
C           23.88760870579886       20.94960851578999       13.88029055809772
C           20.15462649668042       22.53689514679103       15.70354044324004
C           18.74454279010011       20.23411486462775       19.53515463963364
C           17.91453801478650       20.48907221358441       18.26369907081545
C           17.02441898334837       19.27907525423550       17.94599172033879
C           15.22133926526660       20.30832071061328       19.10915913372193
C           16.07932636724399       21.55337565043542       19.32169974690509
C           19.96942662602923       21.51483363725070       23.74902347558741
C           19.59947187151299       20.31211915107262       24.61241529589810
C           18.08330504234854       20.13397270918125       24.60426876402033
C           14.73920267109335       16.28653412530343       20.86227340095884
C           14.20752661394293       15.50796957920446       19.80303608105516
C           14.30728566900924       15.92007096679319       18.47882422699949
C           14.92162287006087       17.12523948567963       18.21378558721912
C           15.45962359078565       17.90260317282814       19.24935137408964
C           15.39251190220440       17.47661287817988       20.55944001823017
F           21.95415380732510       22.24732101160812       13.58143701149037
H           10.07694019258664       14.77055384884130       24.02523667379724
H            9.00111815386042       15.02390273359486       22.64794261650196
H            9.20804246765759       13.39655783642456       23.32696799739448
H           11.35099229180428       15.01869450847237       21.87192713563873
H            9.70339139755249       13.59004894337012       19.13628457437986
H            8.83061535444887       14.51066956032301       20.38325380909210
H           10.41522358347209       15.09006803821334       19.79608616707700
H           11.88812674381215       10.66627159580379       24.84995528066821
H           14.37249926900254       10.87233192568598       24.59159835093730
H           15.24808667842576       12.66628377201287       23.08894320764183
H           12.55909802138537       12.62930944776196       20.19199344675092
H           12.64953227997356       13.59843449787803       18.71105177007740
H           15.00927180607720       12.08052800309900       19.94825731364793
H           14.08506382978941       11.56883308171118       18.52887422226663
H           15.06445364060556       13.04143957467518       18.46421952417924
H           14.84203257492559       15.06055969411181       24.07869392510269
H           15.93958442666594       16.28369829952265       23.42596162513097
H           13.97037717541976       17.89202868492956       26.16494721585408
H           14.31816746135630       16.16387826967799       26.12750471221281
H           15.57854873889602       17.32683397152696       25.70628814327972
H           12.39590214482510       15.74709432922970       24.50467152733862
H           12.00492759665535       17.46331904217084       24.65434187664321
H           12.24587077073573       16.74902682059180       23.06043268188572
H           13.76651058036935       19.20902680738783       24.07864612997701
H           13.96071800062096       18.43935233443662       22.49357839151745
H           18.03719937704237       19.13720887841579       22.69098060432622
H           17.51886153214861       22.01517036996853       22.64313016943380
H           18.74018729312598       22.34209453235772       20.00056290926110
H           21.16158784627654       21.19731152813807       18.77793368278902
H           22.62005325425631       22.80606476567867       17.96367091015126
H           22.19433181762862       25.21394001993632       18.14877492046998
H           20.08606155204768       25.43911295343125       16.84122847899637
H           21.35392115067763       26.52098861066908       16.27939385725954
H           20.98458942767790       25.07197728571614       15.35138548445364
H           23.76953462333653       25.81119844484813       16.34066514353779
H           24.21344175982035       24.23638157704771       17.00833626574861
H           23.36573460620000       24.33668728390863       15.46396333533052
H           20.60010927622552       20.06844288616637       14.56592965795293
H           21.44624712227381       19.90201283264658       13.02528548971794
H           21.65172672620634       17.80930438131411       14.28848136933498
H           22.33589999551640       18.68030174854604       15.69040459335172
H           26.22973004989425       17.33201681027400        8.12265414323548
H           27.50644199558850       16.41659474807605        8.94771470929040
H           25.93411701069389       16.69132213677705        9.74227204087452
H           29.14737596458285       18.44421544973850        8.93648041472040
H           27.87334177370158       18.96492170560757        7.81917726218366
H           28.33970561735410       20.02310542970305        9.14767252698922
H           28.84880761542724       19.91796947034494       11.36733348900382
H           27.17736717653988       20.49675650104702       11.21583262474860
H           27.72593963795789       19.73504836135109       12.71229776336185
H           29.36326669981667       17.47585199905684       11.05931433051345
H           28.53780469084680       17.32076396411060       12.61375406890594
H           28.07106027333489       16.28172178170767       11.26775417377238
H           24.50549156057422       19.66526792732402       15.49394326715988
H           25.43603689281976       19.45159729514550       13.99069540062151
H           23.86051449579420       20.93047639904881       12.78831435547540
H           24.52956648859675       21.76982219665915       14.20198174332717
H           19.68188913609589       21.55366448064927       15.72872152224611
H           19.54963832344161       23.21288618380663       16.30006099403548
H           20.17007216046323       22.89498468188343       14.67668475006573
H           19.47804987421346       19.45597173306430       19.32669746431459
H           18.07984759693727       19.89455337790119       20.32524965628655
H           18.58225246399863       20.69613523630234       17.42296746850835
H           17.62127234581380       18.36867075181301       17.87383561696115
H           16.52157190201210       19.46112515728469       16.97931473335233
H           14.62644670448040       20.41492916373167       18.18163804185137
H           14.53782396342531       20.19982346988549       19.95338490944992
H           16.49941790150372       21.52558032328384       20.33289759886062
H           15.48444381926904       22.46112075487533       19.20612376195811
H           21.04816188930668       21.61420091133352       23.63380363837603
H           19.56741412367041       22.43239222831400       24.19269129065121
H           19.95943090910982       20.47422712563666       25.62659557764924
H           20.07832842854853       19.41719703133485       24.21281307094532
H           17.60171806125998       20.98844880782005       25.08814088174851
H           17.79625227933029       19.22910391054581       25.13725983377390
H           13.90652161752516       15.32394333770090       17.67359409674620
H           14.99074670691762       17.47843854901483       17.19680278202738
H           15.86512044910026       18.07834746623729       21.31546793188631
