151
 energy: -221.319198041713 gnorm: 0.009036676303 xtb: 6.7.1 (edcfbbe)
C            9.23091016084403       14.81290949881621       24.14796503775624
N           10.69613872577091       12.41926975096650       23.98873266882191
O            9.24528306923864       13.96248311175659       21.84728414509830
C           10.05565155928319       14.48046630384024       22.90385387527807
N           12.54911242895484       14.66232816263460       20.54714508626569
O           15.51597453643426       18.62816263538120       23.44633619255166
C            8.49822509043949       14.94230937834454       21.16180519885080
N           17.87721707215866       20.92840625205757       22.07393202384189
O           27.37983082138934       17.32616593752990       13.81047393845351
C           11.09666226171516       13.42661515145120       23.22422287443630
N           19.26215096878097       21.10993049683430       22.15585300056934
O           24.23669513248346       20.52088210430091       17.21792405314509
C           11.55534928420781       11.47273992553770       24.31603546208870
N           20.46083528127376       21.09165603625907       18.70550764197488
O           20.43839089803353       23.35018765366237       18.74402762264264
C           12.88480234052179       11.48310369504947       23.91880249545351
N           22.20764161475319       21.21639960447385       16.53848795665062
O           17.09959798853537       21.14532368986789       18.02152171600336
C           13.31270120732421       12.53222988205845       23.12706696559407
N           26.18946187320525       19.13105438756998       14.50102355848370
O           21.28441135648385       21.13135034795627       21.17701929452347
C           12.41006936560030       13.52674705874234       22.74940320927159
N           26.73913956438769       20.09091241514821        9.12392237737480
O           15.18211295199592       20.71551057135496       22.69172605385451
C           12.90047096691519       14.60379032673770       21.87813749073532
N           15.76422783732016       18.90187541939167       19.03293083969346
C           11.74348564738635       13.69712814065263       19.83982650988916
C           12.58132661947557       12.51374165850537       19.35757896470927
C           13.82317559040825       15.58237703644256       22.17133132140738
C           14.45931376505356       15.87182242286936       23.49235737633867
C           13.85716753233630       17.05879613831085       24.28318142014331
C           14.50879210743449       17.09667757729096       25.66775217455793
C           12.34629860535043       16.88970030940983       24.42936563872747
C           14.10665612990797       18.39741531385251       23.57616490651900
C           15.91631983490754       19.80212941178966       22.99463136196037
C           17.43452877594401       19.87166732726781       22.97963826931785
C           20.06062295569978       21.03747976719960       21.07986893369968
C           19.40685424600316       20.96413493195805       19.69159899953480
C           20.96115105849580       22.30285059929026       18.39314538717567
C           22.24124932281364       22.26309261220118       17.55247788249876
C           22.60766246194498       23.65834198603234       16.99625363071603
C           21.63362575589177       24.18871236900005       15.94668478106292
C           24.02925092191316       23.66548003594967       16.43897474731811
C           23.28880420482911       20.42511753132938       16.43895254553879
C           23.42080022180913       19.42664213798795       15.27293236526591
C           24.25834701400474       18.19707799436447       15.65190764901574
C           25.75505756805497       18.49622700210904       15.72358898854959
C           26.92832445014254       18.45610537107931       13.60466452994378
C           27.20696145476225       19.14325785187361       12.36916358213651
C           27.53105918126374       19.54268278613341       11.28107767908336
C           27.91507946211092       20.13629244451262       10.00172638729567
C           26.21920935554900       18.75462111120446        8.90611855190751
C           26.88214960577999       20.78531882704602        7.86176742585588
C           28.30308055401187       21.59527085642801       10.30009786562048
C           29.14575063846355       19.37020539205153        9.47267684869387
C           25.52312332063741       20.38257088619838       14.23731786036702
C           24.02263330237589       20.14197670016907       14.05206963077334
C           20.98935184035955       21.08241251703704       15.75985277503610
C           18.56566434106469       19.72228986793252       19.40761853083163
C           17.75646694003879       19.89039347571455       18.10553155674391
C           16.73415231971494       18.75129785899022       17.96742812272403
C           15.04128839403722       20.15176074752539       18.88124383504324
C           16.04885158409571       21.29739627951207       18.96190339564063
C           19.80745007639899       21.38218232633012       23.47904600056141
C           19.42566841802639       20.25672960578119       24.43555248104636
C           17.90739962024725       20.09349186947654       24.42883883541752
C           14.07559734782880       16.26993997988789       20.94863953888935
C           13.26549467109368       15.66449390183265       19.95636096639995
C           13.29016752967005       16.11073957110538       18.63834231052278
C           14.10897588837817       17.17421618834661       18.32532809584075
C           14.92453002464413       17.77612011921395       19.29554847577104
C           14.92795960669154       17.31142626884602       20.59238080572977
F           22.17185264175960       18.91576459920190       14.88648226831122
H            9.89398313640877       15.05324356389475       24.97373872220277
H            8.58059380989478       15.66440412539271       23.96546801437474
H            8.63476911134718       13.94601409784684       24.41621246092186
H           10.57050709852544       15.38121504119582       22.53600807456181
H            7.83659565982351       15.49509163171450       21.83504258550295
H            9.16436022060319       15.65127854765606       20.65256506314159
H            7.90141188963010       14.40480214380667       20.42768125858345
H           11.15899392689093       10.67757058892177       24.93402345565105
H           13.55717818285997       10.69540694978918       24.21644873194118
H           14.33621060644783       12.59017002199392       22.78699608587665
H           10.94442412816744       13.34453400648041       20.49788860357301
H           11.28842182052470       14.20397302717249       18.98655544320680
H           13.00553965518512       11.98130860708030       20.20542064031741
H           11.95631749849165       11.82786570631981       18.79389993425188
H           13.39284702286026       12.85848857837999       18.72069068771378
H           14.37385295314576       14.98456492998117       24.12288366637969
H           15.51856726136974       16.07991350112534       23.33165907284164
H           14.14460078835279       17.94829154033910       26.23706316684665
H           14.27367533275889       16.19004259573644       26.21791148713311
H           15.58865995202119       17.17728922799177       25.57478558227306
H           11.93249802566909       17.66148926906046       25.07206756462296
H           11.86341623070136       16.95566699610153       23.45892528668296
H           12.12320986798436       15.91827471183900       24.86142810220069
H           13.67329830544396       19.22317918552119       24.14951019917062
H           13.65835206036404       18.40311573443383       22.57868841493891
H           17.83143712433537       18.92134901548833       22.60794906202739
H           17.38618246428365       21.79561408306608       22.29397231130841
H           18.78222977068143       21.85971231248058       19.58881480679191
H           21.06974214226288       20.29476999804712       18.60240005417647
H           23.04240202427724       21.98575159657521       18.25465775504714
H           22.56187581723205       24.32399198552141       17.86431568395809
H           21.90356963135920       25.21295763960762       15.69997394086885
H           21.67450720317835       23.59947813437717       15.03566829855968
H           20.61763032055267       24.19364172305628       16.33432523065596
H           24.09213576585539       23.04543812076813       15.54764500012290
H           24.31411700090936       24.67909877901918       16.17226914362926
H           24.73817618248213       23.28544228159877       17.17149446394625
H           23.91922746849323       17.80419773820575       16.60907227978676
H           24.07627257272612       17.44436972464361       14.88275169269822
H           26.31759691731116       17.57034129974229       15.84695282614623
H           25.95635047625599       19.16678168324485       16.56149299324196
H           26.20391334319947       18.20607319916785        9.84548864943287
H           25.19826712643584       18.84198407190654        8.53684166851644
H           26.80230567792612       18.18067950276302        8.17167248069740
H           27.60586475144449       20.31003415546880        7.18233875535038
H           25.90967708373688       20.78215576591192        7.37089329902230
H           27.17412099074091       21.81681131962957        8.02932995592104
H           27.41013959939184       22.17408366090519       10.51922819309644
H           28.96174978812711       21.62173863221895       11.16464161689708
H           28.82610594985357       22.03626677338957        9.45696972984076
H           29.96435417380512       19.46714330835713       10.17967013710305
H           28.92196161211999       18.31323308239144        9.35108102548909
H           29.45788466172309       19.78135807833656        8.51597546267200
H           25.69089720763929       21.04207508984339       15.09400023327308
H           25.94346722801459       20.83573034816748       13.33857114833762
H           23.86266855498191       19.50067775778838       13.18181523013365
H           23.51375762873924       21.08996183806602       13.87969281349033
H           20.52965540023884       20.10933574060037       15.92798022919286
H           20.29267315149812       21.84765615945749       16.07962794355862
H           21.18346324480067       21.19203745207397       14.69393500815720
H           19.20945537891212       18.84872212432945       19.30783698310177
H           17.86647935147511       19.56033409047184       20.22342471808324
H           18.43120717100937       19.89301020658384       17.24378337033647
H           17.22934495089975       17.78585576683756       18.07378639748158
H           16.27402404516849       18.81118891794960       16.96539529023661
H           14.49813804919810       20.19993584657219       17.91944412254632
H           14.32369669679095       20.24854279783368       19.69789460479739
H           16.44673247211875       21.34666343383513       19.98170169325122
H           15.57628288410741       22.24782852923455       18.71059195930703
H           20.88819859652157       21.47468590464811       23.37213987810060
H           19.39797156848759       22.33616285235286       23.82994554170048
H           19.77708020381412       20.49313703994629       25.43858554918562
H           19.90062974406947       19.33045307609448       24.10765971010150
H           17.43667872565376       20.99762554915023       24.82112932769749
H           17.60506686634617       19.24781782573723       25.04422077719578
H           12.68767187894792       15.64442085624217       17.87416015262927
H           14.13056602932398       17.54758263307884       17.31173859887288
H           15.60044251822427       17.75862466245039       21.30349090776416
