151
 energy: -221.325211479396 gnorm: 0.006621064769 xtb: 6.7.1 (edcfbbe)
C            8.91633266546233       15.04612473067433       22.07222344839738
N           10.31310004548017       13.54068948141304       23.97359430028777
O           10.26674382847016       13.33080806085926       20.94114113595964
C           10.30846860103111       14.50237043103830       21.75404524502417
N           13.64938081526274       14.29477073637439       20.98598802845140
O           14.94174287057305       19.57544200718471       22.83948358384314
C            9.90937818435058       13.56275452970148       19.59621682633815
N           18.14489438501283       21.03013588929566       22.13009365850507
O           25.53800798481935       16.68442060784527       12.45259461149591
C           11.04121889665920       14.10124298361766       23.01901192243344
N           19.42736260637570       20.92916446639049       22.68098684995526
O           24.27585924513817       19.42891214480186       17.27077516619823
C           10.89848283113530       13.16186443337410       25.09575876681181
N           21.45154553992785       20.57765013630609       19.68490710589347
O           21.33455091776036       22.81471155222858       19.41420299679351
C           12.25244636100604       13.33261697557389       25.34110483235998
N           22.71050102629239       21.02994944473773       17.07126752025321
O           18.71188351548406       20.16009998176342       17.97913844218381
C           13.01871805216667       13.91792656645606       24.35088690509752
N           25.26354421800716       18.49614102173846       13.79258872523728
O           21.61717439430485       20.51065182562139       22.37249975758724
C           12.41926119142246       14.30726540614364       23.15258703552183
N           24.70451943622809       21.11877445541352        9.16456502403681
O           15.51567845651373       21.21255953762047       21.41626425354075
C           13.25591462434912       14.94794642240763       22.12972750761780
N           17.07520722933554       18.12015116096416       18.97162059223104
C           13.41060517314220       12.90546961786262       20.68589954671945
C           14.50386059268874       12.01679830160211       21.27656247964033
C           13.82725358785221       16.19861157592434       22.19363057460429
C           13.67958675230577       17.14886244136869       23.34043428085282
C           12.83462523465683       18.42250241399141       23.10139243242743
C           12.48069745685324       19.03080024011192       24.46187897150034
C           11.55316931632279       18.07878107109003       22.34315608556864
C           13.61917492888799       19.46678485184843       22.29444691723824
C           15.79704887229279       20.40974142153649       22.27867000401843
C           17.18786622079085       20.20987437311364       22.86132853744263
C           20.48568459392210       20.62632163983999       21.91365640328038
C           20.20998468164797       20.47312995728398       20.41575238188140
C           21.90741991412155       21.74934257220884       19.22805568178294
C           23.14949834283368       21.60934956643914       18.34081784070551
C           23.88387642233884       22.94870070733829       18.16487333750390
C           24.90165308552601       22.87458923878159       17.03021337490325
C           24.57556071873210       23.29791833992013       19.48150663342042
C           23.34194650074549       19.92827087910408       16.64443025191279
C           22.93595435927698       19.30297784596184       15.29856938959688
C           23.38814785887711       17.84015975610247       15.19803868209586
C           24.89033943397863       17.70751298445408       14.94312490320840
C           25.47519278104632       17.90589983272625       12.60014968642398
C           25.65371543668313       18.80927413993830       11.49305690163679
C           25.76087430411421       19.47373238740470       10.49486277730927
C           25.93554707490810       20.33034671716700        9.32569254219134
C           23.50500581824755       20.31496307752505        9.03091496852935
C           24.75758862449347       22.12515268377552        8.12394219112054
C           27.12020804200930       21.25886269093798        9.64398771911263
C           26.28861811262194       19.42895011315106        8.12546793491714
C           24.99170164312405       19.90215917577229       13.96149937405183
C           23.48445953623353       20.12255561368837       14.12126733637223
C           21.53398526292341       21.63352033183251       16.47300183466567
C           19.51626376158107       19.15128423352895       20.08425188137170
C           19.26161467504198       18.99429985658758       18.57387092457706
C           18.32527748331182       17.79879654236080       18.32643665336831
C           16.45449853280907       19.26587837784309       18.33567474922172
C           17.39915307975729       20.46416410722860       18.43280063504854
C           19.56268690885049       21.19301886895506       24.10691612546184
C           18.62066049435765       20.28267293409672       24.89123134360390
C           17.19559527991710       20.47774418839158       24.37704724712894
C           14.64082029669085       16.32189650580170       21.02798357500887
C           14.51767158938054       15.10413797334829       20.30950248755355
C           15.24074079306597       14.87303356122874       19.14454247742298
C           16.08117087900766       15.86440508293533       18.68409561027529
C           16.21174541660865       17.07729890254677       19.37576820220531
C           15.50529988052143       17.29807944973035       20.54321672690908
F           21.53244296772342       19.27373374360464       15.20125312571781
H            8.99215602573173       15.81336441982395       22.83730027506453
H            8.46034317758709       15.47988606542647       21.18574824762815
H            8.29483482866563       14.23738871823861       22.44663635986912
H           10.90187280183578       15.27040936073576       21.23164611163895
H           10.01481818913700       12.60447276071357       19.09258894301655
H            8.87676565273789       13.90930663958899       19.50543260345911
H           10.58102994624258       14.29852371261730       19.13747731091517
H           10.24345916996919       12.71047976334293       25.82818500325368
H           12.68932522881289       13.02041623066762       26.27546368034804
H           14.07848245342099       14.07820128888009       24.48376586639861
H           12.43409891333742       12.62257020116188       21.08523831498687
H           13.38371616962106       12.79323400263659       19.59921022292900
H           15.47864042881909       12.31767781200576       20.89894088957664
H           14.51161400449124       12.09864411949283       22.36074297395763
H           14.32556998442153       10.98048811781158       21.00648471840582
H           13.20965989666899       16.60068630585029       24.15933511648510
H           14.67289353221027       17.45862175312783       23.66922197889055
H           11.90836576254704       18.32420628773805       25.05675400301271
H           13.38475503687903       19.29305291959038       25.00615930664619
H           11.88207719670517       19.92992025413467       24.32961818424677
H           11.78613129572565       17.66802857554315       21.36367289896818
H           10.98784854820279       17.33837515230610       22.90157479924329
H           10.93641383334951       18.96368802851664       22.20959618592253
H           13.13315081472826       20.44617360347318       22.33759393519213
H           13.69987383540057       19.17363248988698       21.24386990307200
H           17.46396882516751       19.15990343185163       22.69604005422523
H           17.83345125297891       22.00168786475470       22.10613504211339
H           19.59206862034612       21.31867035194432       20.09671889629633
H           22.04244679175104       19.76213594536635       19.65062498155138
H           23.84127283279701       20.88699810827386       18.78728322404482
H           23.14407255661903       23.72562776393707       17.94835619058980
H           25.48825100573225       23.78800726450967       17.00197438081826
H           25.57453470950917       22.03447310791759       17.18691191160838
H           24.41077959160308       22.75230676525976       16.06835655484052
H           25.32380287091060       22.54768100562934       19.72585934323977
H           25.06433428475112       24.26424853959839       19.40333873661962
H           23.85106056367801       23.34130430618961       20.29265641723589
H           23.12659607938062       17.31505372460140       16.11685654202888
H           22.83874135618751       17.38862662889942       14.36915374978116
H           25.14623335210053       16.66657804301254       14.74581440867061
H           25.44321390344989       18.06737675040421       15.81179111011340
H           23.51058586811822       19.52014939289565        9.77401128745227
H           22.64230396802032       20.95535478055747        9.21140060931528
H           23.39323087257739       19.86515461658657        8.03293582993088
H           25.57847115238129       22.81241627126328        8.30736331374224
H           24.85660541973224       21.70108884133709        7.11377025025926
H           23.82700450923855       22.69094844996076        8.16138363153050
H           27.93773190857651       20.67357855034236       10.05643681508196
H           27.47298010457047       21.75302585921424        8.74343927014936
H           26.81760261389421       22.00451909882679       10.37330734461809
H           26.50873293462360       20.03683690781965        7.25065755859499
H           27.16449594721907       18.82979681465469        8.36760738432379
H           25.46614922453901       18.75287962958698        7.89620146528397
H           25.51526008397720       20.24427012722284       14.85838232116367
H           25.35506568969438       20.45255756200095       13.09480780219603
H           22.97051626815926       19.79194199517265       13.21535713161873
H           23.29026127147690       21.18484767127561       14.26071276593083
H           21.45088284145118       22.65364537172000       16.83887221254056
H           21.59898519931844       21.65205817311046       15.38959444886456
H           20.62733662699882       21.09173625134281       16.75930340568431
H           20.13078733984289       18.31640352669587       20.42286563701450
H           18.55802786113722       19.11653888895808       20.59711101304565
H           20.20501326181511       18.84481514539647       18.03884253856120
H           18.74136423463687       16.89363708231905       18.76761131026349
H           18.22215845702357       17.66112526827104       17.23668831110327
H           16.22900677881082       19.05254308735206       17.27636016234231
H           15.52591386860608       19.50860995139130       18.85122134792141
H           17.42477942588885       20.82064746033170       19.46830977473649
H           17.05694048144657       21.27185240781132       17.78521438127741
H           20.60632269729947       21.01945893058815       24.36645336761306
H           19.31591856815663       22.24435855668877       24.29228021366048
H           18.68269541004706       20.52022939560620       25.95290836246781
H           18.92377398354596       19.24449925741393       24.74975688784316
H           16.86473529732208       21.50092099064070       24.56952437254048
H           16.50821051435418       19.79071851110031       24.86707271371142
H           15.15508239454428       13.94039235383183       18.60847192863631
H           16.65075118548967       15.70438112896676       17.78079988897596
H           15.67331676587237       18.22256262874943       21.06482257951807
