151
 energy: -221.320014669044 gnorm: 0.009386457891 xtb: 6.7.1 (edcfbbe)
C            8.94808910186703       16.02229017950751       23.81111323935859
N            9.86938443104404       13.37935226095095       24.12021135321614
O            8.91673360216762       14.82324647139021       21.66516299859939
C            9.74924844542334       15.33138606123145       22.70620981018874
N           12.23210788138168       14.83730347762199       20.60284825706715
O           15.81482037538534       18.24066044061609       23.52265527059867
C            8.34022512370829       15.81366782383093       20.84226139892817
N           18.39070495297900       20.35505534952810       22.26117900637539
O           28.65016265433685       19.30881173323315       14.33198109744389
C           10.51853022006681       14.14395347192568       23.25537090787906
N           19.78872023632096       20.35245837394046       22.24632205470090
O           24.33170462236555       21.34517720291075       17.34424474776432
C           10.47931273965997       12.32967578812899       24.64263436350483
N           20.56558818044184       20.75442970719254       18.72543926412484
O           19.94864206351847       22.92174151154738       18.58939798831819
C           11.78534120782394       11.98150000786520       24.33574374615304
N           22.24444995674235       21.00481648076698       16.57328884480151
O           17.59645831375717       20.55123033942565       17.86092510396034
C           12.47182815513493       12.77237754785994       23.43300055278932
N           26.59681510091850       20.22524781242668       14.65982165908269
O           21.69674080963184       20.22770718600484       21.06144390134450
C           11.83975678737885       13.87811584806240       22.86534212977661
N           28.45771653651645       20.43977221384377        9.17014146376673
O           15.75395557278884       20.42392184304888       23.03201000997454
C           12.58324129496728       14.73131009159649       21.93196325511637
N           16.00320613188920       18.56166101228134       19.02904095171993
C           11.33026193754784       13.96064313818684       19.89896652311788
C           12.07426115334981       12.76423191054512       19.30789657661226
C           13.67423871445506       15.52536158034910       22.20496107269984
C           14.39351391948991       15.66349094987906       23.50908899766642
C           13.99990872752344       16.87800888160371       24.38087170139663
C           14.73431924356565       16.77016747829031       25.72021558893650
C           12.49120528954874       16.90033123140794       24.61932268583043
C           14.39279091071472       18.19568852816655       23.70355256296861
C           16.36280549676539       19.39177344254819       23.18870433998329
C           17.87075192631050       19.25877673832915       23.07083844851637
C           20.47178369787934       20.31334680143318       21.09329005259534
C           19.65713109635423       20.44000466016669       19.80491344927223
C           20.68169316545644       22.00274823333281       18.24628607134752
C           21.82556760634862       22.22092089443162       17.25663644870225
C           21.56276332925051       23.42078561160839       16.31681942070842
C           20.30525353892634       23.29796681229845       15.45845787319859
C           22.78476862903366       23.68340152543148       15.43993977191020
C           23.54544273639185       20.67717491569110       16.67424253257475
C           24.09866436796168       19.46620729096291       15.89708492961741
C           25.45528532834575       19.01309207803572       16.44989273805415
C           26.59198675903359       19.96825534745275       16.08074516355187
C           27.62261498602714       19.82629676304079       13.88509179905602
C           27.44548499307838       20.02065584430668       12.46896969650012
C           27.41112156182665       20.03801873657349       11.26514328463420
C           27.21364655310919       20.00947901479674        9.81764372338093
C           28.94011212669017       21.73173630653633        9.61491636929027
C           28.45307854073847       20.36865204418360        7.72414191093312
C           26.92106338580191       18.53526794319448        9.48453163815577
C           25.97974897369176       20.87320058722472        9.47928132751209
C           25.35944012670502       20.77096923607773       14.16276890523505
C           24.22313867975354       19.77399272985631       14.39977792127551
C           21.22959246250880       20.27600531536165       15.83451070925791
C           18.84805537726839       19.17624773852093       19.49388291099746
C           18.13071108605737       19.26420132056646       18.13286190414421
C           17.02002535796444       18.20654967096802       18.05932197389894
C           15.41179557837356       19.84166244476671       18.68030937643971
C           16.51518113790792       20.89674296272174       18.70893980152316
C           20.46770718628424       20.36056756153783       23.53391604328669
C           19.99557742651163       19.17640385187200       24.37221881750270
C           18.47458850626584       19.22455145273928       24.48837769143012
C           14.01800025485617       16.16291915626120       20.97633209144532
C           13.10003127165617       15.70199118934064       19.99953457098954
C           13.15929538381103       16.15102312399054       18.68416011426395
C           14.12041907140040       17.08179861668118       18.35894022658056
C           15.03541457100042       17.54966368272360       19.31437370997869
C           15.00389993267903       17.07556531447890       20.60825890331902
F           23.23591728930348       18.36440510904855       16.05064957686522
H            9.61186294674802       16.29024265220780       24.62621900123908
H            8.47766836297770       16.92533209342182       23.43105928186653
H            8.18814903118685       15.34013550299808       24.17865028652282
H           10.46125494086482       16.04634382428267       22.26205212630461
H            9.10942843434364       16.48672349425211       20.44636765275463
H            7.86245648646854       15.28014732952322       20.02276454957756
H            7.58915005907664       16.39972911031273       21.37738189633822
H            9.88805660139188       11.75174963433091       25.33519450789973
H           12.24528069413274       11.11759671018583       24.78735223597099
H           13.48899839216950       12.54295949947316       23.15402321864321
H           10.55645017254243       13.61963393567004       20.58978759193851
H           10.84722621131533       14.53141538887558       19.10171945798244
H           12.53393077055064       12.17638336474294       20.10030295926446
H           11.38243981445517       12.13171812915537       18.76040469392007
H           12.85586719589265       13.10188706082011       18.63068757134407
H           14.21014159544107       14.76782566451800       24.10472640938070
H           15.46354886139818       15.72804491665010       23.30657572278149
H           15.80840675662832       16.72248882527670       25.56393016775592
H           14.51153388152435       17.63231540668463       26.34462601050094
H           14.41867395979693       15.87493111692764       26.24925663973344
H           12.22694627845868       17.68874939947153       25.31944475573243
H           11.96127794915261       17.07337185098649       23.68794806200845
H           12.16694419450520       15.94660647835594       25.02926792096009
H           14.09214469854403       19.05336255844144       24.31492121631692
H           13.91615957058874       18.29309891613211       22.72412845273546
H           18.10687335028241       18.31783876452772       22.56129910374459
H           18.03160003711200       21.23968223062394       22.62474195442435
H           18.99261363634660       21.30245221964265       19.90150605437463
H           21.30712440951487       20.08997218144928       18.56271470897198
H           22.68103843254269       22.50697252168579       17.88763731847395
H           21.41883819846475       24.27115838783605       16.99174953902585
H           19.45025252098649       23.01854562407729       16.06950505149169
H           20.09224984245311       24.26291329126060       15.00533658961480
H           20.43356212532862       22.57422814759953       14.66040034169395
H           23.68521376436153       23.75417015807279       16.04573472508600
H           22.91530139728939       22.88032647684146       14.71886098378942
H           22.65818177654333       24.61396164650397       14.89551602604474
H           25.39532770726762       18.92917314152342       17.53593265212165
H           25.65624392812826       18.02290943610437       16.03334706388117
H           27.55330452704019       19.52659172513694       16.34847749065685
H           26.46172271510515       20.91166896974788       16.61797630948331
H           28.90443156954423       21.78293574117006       10.70236268726580
H           29.97781470275704       21.83652907175263        9.29877391848039
H           28.36989226747564       22.57618590379070        9.19876297868698
H           28.21407602590424       19.36063277430789        7.39770900624177
H           27.75489125843895       21.07870924416089        7.25574132808554
H           29.45795047097397       20.60538639659827        7.37616222603567
H           27.81523553194782       17.94045871809049        9.64428299511866
H           26.13347249423382       18.16754968451779       10.13722813302030
H           26.59189247023462       18.42685642671411        8.45599090939012
H           25.15617168522372       20.60756037255510       10.13247171900551
H           26.19818437142582       21.92875335576783        9.61284738894101
H           25.67490886662853       20.70082815163883        8.45057835744118
H           25.15452224497927       21.70245206850836       14.70210752101079
H           25.45913054091342       20.98682747971646       13.09829396675533
H           24.44566662469920       18.83659914238260       13.88721042063013
H           23.29148741433433       20.16998692217554       14.00490881347855
H           21.35409154005998       20.40195141660211       14.75884259692970
H           21.25575268188983       19.21414895656130       16.06400155990450
H           20.25728470134103       20.66716115442348       16.11917750911904
H           19.51034281847746       18.31053004115773       19.47908693666827
H           18.09688117632319       19.04387557030381       20.26950328648383
H           18.84718430146476       19.10167535015440       17.32244645873772
H           17.41896309876998       17.22283779878441       18.30729494203108
H           16.62412786933709       18.18201121701532       17.02766596178725
H           14.94146305448455       19.82382946544269       17.68241597183166
H           14.65420110077631       20.09467787010088       19.42363117684454
H           16.85578577853185       21.01933815895219       19.74373672620088
H           16.15124890723853       21.85559938360942       18.33620487037556
H           21.53754201999590       20.31678535800123       23.33342643461628
H           20.23506229485080       21.30246867201931       24.04325755757333
H           20.45694882437887       19.22059111350113       25.35629504201935
H           20.30078724725931       18.24797175451809       23.88754203654248
H           18.17007062830546       20.12263786179128       25.03189898566483
H           18.09746382861519       18.35253324305569       25.02070727512780
H           12.46673866049406       15.79652417790662       17.93599153181269
H           14.17265346044083       17.46278613178146       17.34901862806174
H           15.73881734461033       17.42876705989600       21.31167851605118
