151
 energy: -221.324782897902 gnorm: 0.004070168869 xtb: 6.7.1 (edcfbbe)
C            9.01632848392583       15.45405603190199       22.97159467272719
N           10.31737316376729       13.17841599389066       23.91014509134334
O            9.79738694681386       14.15129753008152       21.04891460451303
C           10.20841148326297       14.88725674094492       22.20225316718319
N           13.19644005787272       14.41377808704251       20.69903418734947
O           15.67020504432171       18.83637636074370       23.48835516865006
C            9.49421964253697       14.95257366498531       19.92869241205738
N           18.49021579101975       20.71019645207906       22.30868133660912
O           25.86527771019907       17.11974348983321       13.31035685561554
C           11.00871890151295       13.93634874216219       23.07200825442264
N           19.88059768947434       20.62546488464066       22.44553938265846
O           22.71471686172732       19.87589004154816       17.03300615585468
C           10.95777147051552       12.33900422558516       24.70405242560918
N           20.90463567021367       21.08814860295875       18.99963931464677
O           19.96813750149055       23.11225384494584       18.62714606415480
C           12.33865942768620       12.22003521831834       24.72741965619782
N           21.34251722515235       21.41415883672780       16.13825471844782
O           17.93397415248410       20.67436380210029       18.02745318644608
C           13.06926091232815       13.00287737949144       23.85193926403777
N           24.45927537472262       18.77643603004395       13.96481522761991
O           21.89343725361546       20.46020134153555       21.45236665064963
C           12.40679175947152       13.87275065595352       22.98794383989758
N           27.43763222127183       19.78038795035177        9.11953016850168
O           15.77940951823417       20.83109657161279       22.47435974677693
C           13.19096207440553       14.68544292961547       22.04904980270274
N           16.61168961830922       18.43242730779347       19.07014399639175
C           12.64265539996670       13.23494237110640       20.08137957527918
C           13.64647247653358       12.08305046017109       20.08944252760088
C           14.01594964091352       15.75016767533781       22.33154847630460
C           14.35466806170756       16.28277152850972       23.68825601166827
C           13.67508460913364       17.60249391734132       24.12222831773122
C           13.93454237441731       17.80693543281327       25.61747376843996
C           12.17152343059941       17.54223119691970       23.86072464998690
C           14.24119654871656       18.80291526720331       23.35396443269509
C           16.31498733176413       19.86791784775093       22.97553586923115
C           17.81955152891735       19.68798327949313       23.10328924933579
C           20.67520657268411       20.56650558544099       21.36457186337942
C           19.96553777059472       20.68104665778016       20.01621469913687
C           20.79449187193840       22.25211954133603       18.34963643944350
C           21.77209186358029       22.36246042244734       17.17102825483942
C           21.90522543742185       23.79747226697689       16.64202348267952
C           22.76076075707707       23.84648971682249       15.37631468279964
C           22.54702697864803       24.66685530280481       17.72346765419903
C           21.93498074041259       20.21166007258278       16.13717369438789
C           21.78156094652905       19.28683634271147       14.91293263112082
C           22.46247479638540       17.93371175533481       15.12808653196488
C           23.98505973317867       18.04278654508117       15.11604301884000
C           25.42325536234622       18.26396330280160       13.18116844218897
C           25.97137946629457       19.14191536179247       12.17936843005568
C           26.64285533096309       19.70669211865166       11.35352662660557
C           27.43284879387663       20.48838653978401       10.40662994187419
C           27.82605017684047       18.38626806452824        9.20046000930649
C           28.17668477168069       20.44139439313601        8.06325419094711
C           26.74255071474309       21.85477185153975       10.25415221381715
C           28.82997434270313       20.67912894627873       11.03686767090005
C           23.87806786286002       20.08679406302405       13.80007550171544
C           22.35682937322034       19.96807834080394       13.66732736424718
C           20.11633744736343       21.76711623358507       15.44670098295755
C           19.29263994830437       19.36117396910385       19.62170196546514
C           18.61559746493304       19.44830496217911       18.24058746813530
C           17.63682439867684       18.27687160310393       18.06347917659085
C           15.86011930134459       19.65506035437126       18.83443590261651
C           16.81393147091674       20.84600549940943       18.88190267335709
C           20.41746233371063       20.66231336132173       23.79831283436879
C           19.76430238397863       19.57767769110005       24.65188541803259
C           18.24457589481298       19.71910071557361       24.58160864872701
C           14.56611021192402       16.16303265167328       21.08181897106183
C           14.04838181426621       15.29141848769889       20.08962542363542
C           14.43087700168861       15.40639519682773       18.75779457142713
C           15.29075501484594       16.42600738530509       18.40731720402644
C           15.78401388426378       17.31641781768463       19.37087930801299
C           15.45141654103045       17.16574885058892       20.70217190748598
F           20.42130740095289       18.99649010621420       14.68827385839958
H            8.35644507464738       14.63875992913269       23.25029590654304
H            9.36524620194153       15.95240999876659       23.87084876949135
H            8.47234898035488       16.17008605869216       22.36239354688400
H           10.87076072438492       15.70284272600937       21.87429130087381
H            8.68221221638373       15.65464864799368       20.13705316641789
H           10.37812752196545       15.51471303980652       19.60158405459811
H            9.18435041948422       14.26469986065876       19.14547579181479
H           10.32831173418214       11.74594509836905       25.35319832871743
H           12.82273278667685       11.53508111561743       25.40419039823057
H           14.14767222853837       12.94388747804294       23.82122029102299
H           11.73485511506384       12.95003125005382       20.61774793240085
H           12.36750638837099       13.48475413664723       19.05402249078399
H           13.90093887915410       11.81229416010480       21.11153621699266
H           13.21892034012093       11.21595294422891       19.59554899328691
H           14.55714346004600       12.37270380098339       19.56996758062473
H           14.08249764552243       15.52402636193771       24.42474692153248
H           15.43486292591896       16.43324205280465       23.73717447376911
H           15.00276379626105       17.81636258601236       25.81685898635867
H           13.51170911542602       18.75145799666898       25.95105862163743
H           13.47940409187501       17.00536077955832       26.19275163603619
H           11.97411806136154       17.49329166165708       22.79295008858137
H           11.74968192992499       16.65786604572651       24.33075364440801
H           11.67579207369027       18.42218504347229       24.26181496927368
H           13.83062810725827       19.74172343118098       23.73881565159967
H           13.99608207101326       18.73580061340735       22.28964480709959
H           18.08280778456276       18.71157503069255       22.67899878913817
H           18.15675279056758       21.63366144941276       22.58900689770480
H           19.22383568037409       21.48234219085959       20.07950424597306
H           21.66025598775970       20.45263176086421       18.77182121615478
H           22.75393278824003       22.01989924091412       17.51651054513695
H           20.90403725014660       24.18994907908547       16.44369362368040
H           22.86253528363054       24.87684308788225       15.04616693837018
H           23.75361277471367       23.45272002420386       15.58335151035975
H           22.32687444703176       23.27100811060993       14.56496258585112
H           23.54954726110077       24.31215377507325       17.95400312188021
H           22.61236414034306       25.69542127271629       17.38021016196209
H           21.95242046900792       24.64594185347651       18.63320722971626
H           22.14638026223920       17.51565550769070       16.08394912092321
H           22.12557517101962       17.27210339423087       14.32783108506590
H           24.43256516377848       17.04746894414667       15.08555068532065
H           24.31471436400938       18.55688615703857       16.02526019535909
H           28.91118911566484       18.24652354300564        9.32559221126789
H           27.31487804389280       17.90166228258092       10.02988504128969
H           27.52746806495661       17.89529393545834        8.27423717370269
H           27.92561846993881       19.94884142305899        7.12413122712988
H           27.88313562269385       21.48328155521422        7.98991176419905
H           29.26731891093698       20.38022655613370        8.19725717464902
H           25.85722571946234       21.74971843797638        9.63311295474046
H           26.44823603174740       22.22343215037346       11.23364368345070
H           27.41457249230517       22.58141362568749        9.80601676480578
H           29.43714222469809       21.32533936176957       10.40810363240150
H           28.73074961950817       21.13723040805574       12.01756280788527
H           29.33084613461957       19.72099990116718       11.15581019445218
H           24.12430526144870       20.69763316359637       14.67647326128977
H           24.29914426075399       20.55292678383642       12.90852531634243
H           22.10840534872576       19.35548834623488       12.79894556575552
H           21.91901121490866       20.95580076629787       13.53467055450917
H           19.34433473254192       21.97469328155977       16.19230289537105
H           20.26189361089551       22.65642220874948       14.83694521977680
H           19.76592227313178       20.95866641755550       14.81846863063720
H           20.03934804042122       18.56695867773374       19.59059724148976
H           18.53341856932487       19.11222107877952       20.36049212932567
H           19.37082763175939       19.42222903695713       17.44767474955974
H           18.15205986057966       17.32799082142888       18.21587694337410
H           17.23903222788027       18.31263006805177       17.03431402729784
H           15.34839132003816       19.62147626862013       17.85642054814246
H           15.11242891108844       19.77345130953125       19.62038324147038
H           17.13501541676338       21.00209176269228       19.91817997023151
H           16.31910227747157       21.75021640619452       18.52444731468213
H           21.49516835713788       20.51956236243078       23.71873423829937
H           20.21624597883658       21.65192957853940       24.22423213475521
H           20.10668140752478       19.67433226709911       25.68112595936665
H           20.06086983221415       18.59662609481254       24.27808006021196
H           17.93644854548772       20.66881744313389       25.02512666579916
H           17.75470794179006       18.90865435473740       25.11855204972066
H           14.06184964958763       14.72505086700281       18.00623121182523
H           15.58697356701069       16.54298301544581       17.37569372781772
H           15.89659826816557       17.83407297114134       21.41703430330634
