151
 energy: -221.326520099419 gnorm: 0.003920130568 xtb: 6.7.1 (edcfbbe)
C           10.56596882401300       13.89712366607163       20.72332776657142
N           12.14012358245454       12.27134819850699       22.37340229496096
O           12.23110703745289       12.69046869752607       19.37760499826985
C           12.04141761885606       13.66592328892699       20.40320920754661
N           15.28978368535754       14.25393704592806       19.85095329327321
O           15.37760963408010       19.38235088420575       22.52569144586982
C           11.92461197705504       13.14175316958995       18.07594115134466
N           17.82514524058638       21.93916156625216       21.97918756130301
O           19.27435939532679       19.55561456777006       13.37736855005700
C           12.78413418946563       13.15076416693593       21.62102425255680
N           18.96820602136559       22.38809046851765       22.65011093902092
O           23.18278119299459       20.79482435542151       17.27534813683760
C           12.73096714072621       11.78357509805515       23.44996962973774
N           21.66916487178000       22.08080728927547       20.19802681560427
O           21.43182428395314       23.97371072979231       18.99467902261507
C           14.00305969353794       12.15821462704351       23.85240585612340
N           23.55689430179812       23.00568167700068       17.45157184572196
O           19.11313244406144       21.41273499331443       18.04671816772444
C           14.68397717232415       13.07554356265118       23.07211278142913
N           21.29403258425530       19.93549203420346       14.33751439574159
O           21.19566894655747       22.65693915058067       22.72177297745290
C           14.08295940260732       13.58415315863904       21.92233187115806
N           23.31419603851067       16.73785120221299       10.57886775700294
O           15.28683367127922       21.20223907648994       21.21780495054295
C           14.81470482513337       14.56112225354426       21.10753323852139
N           17.86954387149153       19.01997875561339       18.78311257568544
C           15.36167393865008       12.92409339463743       19.29668791257673
C           16.61850647228662       12.20066224808785       19.77622874220342
C           15.16213001466507       15.84667139814336       21.45395533868470
C           14.87327749294867       16.53929652434918       22.74707814848771
C           13.74369926028318       17.59604411086453       22.72789856267238
C           13.42243535420069       17.97993058986891       24.17465817574656
C           12.49529370108713       17.03339436807403       22.05067026156856
C           14.16654042857096       18.85757866891547       21.96315880695793
C           15.84010514063875       20.52656321820022       22.05670377086013
C           17.14071449587953       20.90239913359470       22.74810886457362
C           20.19032591324124       22.33790028969367       22.09574184438117
C           20.28855147038595       21.95868532763772       20.61581905929005
C           22.11933787679011       23.03733467613195       19.38369073189741
C           23.56641847833288       22.83319171862701       18.90679520653810
C           24.55255784853522       23.73137380828820       19.66850824973963
C           25.97718419350588       23.52527982140756       19.15942568709306
C           24.48349743151551       23.39701123219206       21.15971891995731
C           23.31290512130415       21.89826056161809       16.73802539946882
C           23.14288916076181       21.98432912237843       15.21223946012008
C           21.67440518310966       22.28096965740037       14.87737594551016
C           20.81155370067586       21.04542959902437       15.12277199341115
C           20.47697612171702       19.29628729709597       13.48496592193304
C           21.08540489546423       18.30474225885198       12.63721965526179
C           21.42249403605279       17.53491577105518       11.77390637786190
C           21.85788446676778       16.61992693321109       10.72221176472984
C           23.78223433833360       18.08722268454234       10.32895459291663
C           23.91604748687169       15.82025621669297        9.63304754209707
C           21.48075540469402       15.20220244317640       11.18540782868570
C           21.05612296155000       16.98264614381418        9.45371263447170
C           22.64815348538162       19.53886801662708       14.64128278973211
C           23.60889095600336       20.71625029574497       14.48248764511779
C           23.56012901395193       24.35741980974140       16.92940732321334
C           19.80928753719921       20.55367453353039       20.24812703688875
C           19.82547912641729       20.38202928556712       18.71871719450206
C           19.24056064690373       19.01953834310236       18.32895933143848
C           17.10041061179154       20.01451702556414       18.05918225336786
C           17.71823740798998       21.39064124866524       18.31422697736262
C           18.77133927198372       22.88102974536977       24.00697596761020
C           18.12567764012975       21.79303402008410       24.86035585471465
C           16.82984450651410       21.33766042437091       24.19295732665591
C           15.91150102851497       16.36072435393696       20.35609203270196
C           15.97881232369104       15.33593658450925       19.37877089683326
C           16.66848368067545       15.52407250391255       18.18529600161752
C           17.28201365817326       16.73962489037686       17.96795306025044
C           17.23723348993664       17.75451704371788       18.93400477207862
C           16.57313229646812       17.56185137363113       20.12641055394193
F           23.93835913890400       23.01654075312680       14.68764002115605
H           10.47926715838416       14.60997803031557       21.53707435369526
H           10.04376241877022       14.29151593248711       19.85637695774199
H           10.11692996151510       12.95567545573771       21.02379393070606
H           12.50673348997169       14.60944956701852       20.07453386177255
H           10.85270808607329       13.31277455900885       17.94681627808653
H           12.46878304283692       14.06586081115857       17.84725899889240
H           12.24665325862956       12.35001435178434       17.40299831000050
H           12.14881339631009       11.06661942781543       24.01229024564689
H           14.44546096014489       11.74391654142235       24.74345984741113
H           15.68089279611864       13.39556726292371       23.33882606487526
H           14.46912986120030       12.36976051564761       19.59444320111948
H           15.36723091534419       13.00716257998929       18.20784869352505
H           17.50921083356513       12.74514676208421       19.46896825584897
H           16.61624628560736       12.12540574641327       20.86218619528564
H           16.65433869011074       11.19875251478811       19.35883365618800
H           14.59619936100375       15.78284619016018       23.48367511533274
H           15.78563846337800       17.03203104869166       23.08864898520219
H           13.04487408127420       17.11842495299619       24.71874689089660
H           14.31598324392901       18.34327150858464       24.67465128831883
H           12.66678155329794       18.76108794061593       24.20226783091762
H           12.19957473802130       16.10488187973817       22.53190974323094
H           11.67179311390473       17.73961149074221       22.11722733752712
H           12.69035193892761       16.83060952963066       21.00067115213795
H           13.39044532464860       19.62718177477080       22.02393363611535
H           14.34107039704080       18.63389012091368       20.90664544821082
H           17.79087095695706       20.02072213692631       22.77327957145915
H           17.18240483773316       22.71355041718205       21.80568677072249
H           19.72370244730012       22.70211852979831       20.04002737312464
H           22.30406894396783       21.37892459243976       20.54719087674847
H           23.84922125551442       21.78926012713679       19.07662850090361
H           24.26419455164855       24.77796034275140       19.54129398312372
H           26.65930098711874       24.16779473779730       19.70927201366653
H           26.28187198509485       22.49176735391679       19.30649287628641
H           26.06079802091046       23.75948806302903       18.10269790478388
H           24.77702730215278       22.36443287929508       21.33293525386213
H           25.16397543021450       24.04076843731699       21.70955050125184
H           23.48178036594049       23.54248745089947       21.55904443989276
H           21.29126267264269       23.09713198321938       15.49075246460175
H           21.62062380925282       22.57361198303640       13.82638474595051
H           19.77632556369852       21.24231460686003       14.83794500252424
H           20.83689157432848       20.78571092342700       16.18471365239963
H           23.66816895356815       18.39323732807082        9.27808622909275
H           23.24067561487840       18.78923457955214       10.95843400781204
H           24.84084615775594       18.13399242571184       10.58350619727545
H           23.68250621044465       16.06544798081362        8.58571391454870
H           24.99698983062806       15.87726004168220        9.75806640750785
H           23.60311043378023       14.80211185634070        9.83948788665048
H           21.48665353800783       14.50870995714783       10.34985651115661
H           22.18163904204850       14.86670523227072       11.94416885549264
H           20.48125158225591       15.21582718414941       11.61174701283170
H           19.99241718549332       16.89369990473458        9.65747996753471
H           21.26108577362709       18.00710226040499        9.15057496789422
H           21.31610620369404       16.30988347113565        8.64050716021841
H           22.68462718027125       19.19116234221592       15.67904486469092
H           22.94405630452293       18.72762350025786       13.97451276068473
H           23.69701321553527       20.98191016953470       13.42674936304135
H           24.59279690675306       20.42859290780048       14.85208708255270
H           22.84649403350799       24.47132414139141       16.11883265066626
H           23.26140466930708       25.03310720982217       17.72447947944992
H           24.55120255099633       24.62916588763331       16.56330542169414
H           20.47199164723227       19.80941291505210       20.68798302210260
H           18.79738579811361       20.38828004909763       20.60414062442698
H           20.85303686695670       20.47274553484050       18.34760662687754
H           19.78606584380754       18.21580117881684       18.82426113511253
H           19.33016470759797       18.89444311993893       17.23403186590357
H           17.09107549437413       19.80684843290840       16.97272792566208
H           16.07338451679357       20.01223194249038       18.42884204055351
H           17.52265330515290       21.68709756914545       19.35123770928428
H           17.28597857504577       22.13380912659446       17.64221582251626
H           19.74833928105433       23.17197195520550       24.39130112535998
H           18.12185774124132       23.76207167341488       23.96143610428195
H           17.92359204338155       22.18176453214270       25.85701761517469
H           18.81227658298400       20.95011640897517       24.94767676474478
H           16.11039545854339       22.15969544433444       24.17358959431661
H           16.38811014174543       20.50216576388965       24.73344063952548
H           16.72801669635262       14.74619730864883       17.43908204899163
H           17.81402849275813       16.91468090050509       17.04372010550533
H           16.60786048872681       18.34327554959201       20.86409435722545
