151
 energy: -221.324438874647 gnorm: 0.007691451826 xtb: 6.7.1 (edcfbbe)
C            9.02062384846734       15.44373948939086       22.16606251281845
N           10.21454901784971       13.24840520172044       23.39828287937407
O           10.10983673366500       14.08615767473394       20.43570435311178
C           10.32287631445662       14.87400911831452       21.60787458915327
N           13.54881315337684       14.32016573753100       20.52049845336439
O           15.33889699856817       19.07632200795432       23.26205004830654
C            9.91297883599640       14.84034761143612       19.26054638493781
N           18.07835374685180       21.18208376427959       22.42128144888614
O           25.22398533932830       16.64085588619441       12.65812168475177
C           11.00451397258476       13.96411464648979       22.61085002809306
N           19.36110485956919       21.44505170803920       22.91072468154347
O           23.88003193139359       19.65803587573780       17.32709778712515
C           10.75247245495284       12.40972802697059       24.26556769569097
N           21.39393454234730       21.05968334430620       19.89979853724695
O           20.95954282956045       23.15277545595129       19.18092711113998
C           12.12178383183431       12.23073713092842       24.40128352442354
N           22.34210622195675       21.27366836612306       17.01919788958760
O           18.88971615885379       20.23361202502843       18.23889739644863
C           12.95379770981104       12.98458969384992       23.59455888159275
N           24.75813071427845       18.51376900024445       13.85138959896834
O           21.57888941843941       21.50099010163868       22.54783897349345
C           12.40070252500941       13.87481567912454       22.67380900271820
N           26.39458975103975       19.66394953017933        8.41758297382600
O           15.35637345429469       21.01382595943519       22.13053210340131
C           13.30747279742104       14.66762395123665       21.83002537613087
N           17.26836233389839       18.20733996077455       19.27890937887042
C           13.04873225123384       13.15593782318127       19.83468528781727
C           14.01053503321910       11.97571366807063       19.95772143164559
C           14.07893962139441       15.74797281801379       22.19321801764394
C           14.16602692642107       16.37619216233869       23.54872166321283
C           13.39761285366673       17.70093201878075       23.76497094113011
C           13.51343082283206       18.08848543233326       25.24150134433827
C           11.92314613715021       17.54175595568536       23.39508279154976
C           13.97166705109136       18.83024759657489       22.90205961049325
C           15.90935623858113       20.17438824059067       22.80936766356386
C           17.34104764832681       20.28700273716638       23.30406203100928
C           20.44545315953058       21.29039336547011       22.13332380482681
C           20.18084596804047       20.91526717805183       20.67294239915969
C           21.65304610373892       22.14451304253370       19.16419313261105
C           22.83954083165905       21.97079962575045       18.20560715292429
C           23.50123260666408       23.32003168038781       17.87575286621331
C           24.36305892621415       23.22487234638409       16.61883575487946
C           24.34448099951012       23.73903428345395       19.07978452757854
C           22.93705878035717       20.12221471782629       16.68344443062406
C           22.48170809047922       19.38840087046900       15.40924215361426
C           22.95898894045035       17.93018167484815       15.39082139016319
C           24.44679991556556       17.79336355200826       15.06340745960202
C           25.04748071917433       17.85960301435537       12.71079812674184
C           25.14761567737320       18.67850320618537       11.53132471236546
C           25.22125516048320       19.19778494837615       10.44680890441914
C           25.21067373751289       19.99029691055257        9.22061459519752
C           27.63810980696234       19.63215215069431        9.15943750950301
C           26.54199846708811       20.45057619482673        7.21054504992575
C           23.94546461314552       19.57042373924437        8.44953295402320
C           25.10266691520816       21.47228213845791        9.64225348216815
C           24.45051832188644       19.91990765624135       13.92986073304364
C           22.94812456963049       20.11646860973988       14.14167343594299
C           21.13177366829303       21.80950587098376       16.42862921885961
C           19.62464398556860       19.50191012033860       20.48006726922419
C           19.45467761445907       19.16667804644327       18.98557151268403
C           18.60687119869465       17.89646903965410       18.82287041213738
C           16.68047012029839       19.22489190528573       18.42689783497285
C           17.52741611450520       20.48739479076004       18.54636325501289
C           19.45808527061423       21.94829850936727       24.27245063965658
C           18.76231187355893       20.98507932944616       25.22969712865113
C           17.32186422646944       20.77347148703081       24.76769905785029
C           14.85716919807586       16.07974912902017       21.04277376539100
C           14.50373722604875       15.15974766632510       20.02355890849535
C           15.10615031566367       15.19545846216947       18.77002216983198
C           16.03759166128966       16.18015684373630       18.52426178635972
C           16.38541393199288       17.10841645949124       19.51617040472232
C           15.82363486968629       17.04572971596235       20.77376846869868
F           21.07603239537264       19.32590497184960       15.38890398860142
H            9.22357914574352       15.99081662123754       23.08070867859823
H            8.56176429249015       16.11821021772727       21.44877387743844
H            8.34172023162695       14.62599859371577       22.38270654909286
H           11.01527851142977       15.68974377867852       21.34828180394631
H            8.98025915667429       15.40990538538792       19.29416218648100
H           10.75073152699927       15.53020539570939       19.09803015881942
H            9.86668887167597       14.12041955547477       18.44688396544077
H           10.04681817747590       11.86068099004876       24.87456563565362
H           12.52238067900676       11.52687533901498       25.11266216293998
H           14.02904687991681       12.89101956488012       23.65995141508419
H           12.07342232421680       12.89281386646652       20.24674329023743
H           12.91339951202703       13.41948751963734       18.78172177960784
H           14.99604680867953       12.24993288046670       19.58780766133941
H           14.10279372231616       11.66678840818743       20.99681142228244
H           13.63819385467146       11.13637540290074       19.37670844310950
H           13.78426470417825       15.66026496224363       24.27959237142960
H           15.21836450810882       16.56509657614518       23.77153889309160
H           13.03130998780337       19.04597366709448       25.41965291181065
H           13.03123090798006       17.33999020269408       25.86439589153693
H           14.55659115263373       18.16563424959259       25.53498833269100
H           11.52156924717106       16.63843349512279       23.84387419716378
H           11.34724479650875       18.39190389725567       23.74843216512103
H           11.80681288493420       17.47530285266245       22.31754208237642
H           13.40181056510789       19.75448145698960       23.04431319402494
H           13.93663244163229       18.56509175026736       21.84226861990793
H           17.81468074824393       19.30111988661589       23.26222973241761
H           17.54924033339191       22.04419417325036       22.29092711569978
H           19.47876221309269       21.65743285949717       20.27516632273013
H           22.07477982467032       20.31928415405922       19.95999952365970
H           23.58893589991655       21.31110006806500       18.65299793207825
H           22.71330574973636       24.06699704288366       17.72958812945724
H           24.95563469981567       24.12748904595162       16.51245904452826
H           25.03643301754814       22.37468530632966       16.69020936892853
H           23.74998665210475       23.11122583439439       15.73103552340278
H           24.77241044940902       24.72483767200792       18.91801545053615
H           23.73004494928215       23.77325369079169       19.97680788539556
H           25.15423538217063       23.02971327339540       19.23811479847031
H           22.75908462458781       17.47065453832956       16.35934453230847
H           22.37033076827639       17.41240659946175       14.63041254030010
H           24.69829714462804       16.74242332070857       14.90820011351149
H           25.04380411912109       18.19727053832888       15.88558773213884
H           27.52841222755148       18.98645809050948       10.02813908377165
H           28.40772277721919       19.21367768727358        8.51363172553202
H           27.97248473859045       20.62562929125013        9.49450195259930
H           26.83972645585175       21.49134812844467        7.40588804007239
H           27.31835597426359       19.98768454292183        6.60285510690495
H           25.61793322715485       20.44352977267362        6.64140539971898
H           24.10214416184837       18.58887730195425        8.01102174596464
H           23.09686002283622       19.52280520055586        9.12688509611699
H           23.71692488652261       20.28365204982205        7.66295064633169
H           24.21765717421330       21.60801780798821       10.25762174978672
H           25.97531936041584       21.77098736766472       10.21860698603955
H           25.01774647723557       22.10819709082535        8.76543400213598
H           24.99917080228480       20.34110083573257       14.77817964454769
H           24.76786173939612       20.41443632305449       13.01190959173540
H           22.39905167958921       19.69381420738490       13.29768688801803
H           22.73352299904627       21.18163037674694       14.19962423334891
H           21.14847324966101       21.74800723877421       15.34592420642117
H           20.25635400742590       21.27102424800645       16.79795926783041
H           21.03775160225049       22.85083238496614       16.72440736623615
H           20.30563257820428       18.77438430735790       20.92052051144952
H           18.65311570100058       19.42579669359400       20.96335336304479
H           20.43336497447109       19.01728403014437       18.51843053643566
H           19.01655449034633       17.09101776823083       19.43296864014149
H           18.63622530902118       17.59276091846787       17.75987972700274
H           16.63979817730251       18.90293415835550       17.36944254036657
H           15.66587888311767       19.43384472222266       18.77002904256711
H           17.42949477827983       20.88891591897073       19.56217135936580
H           17.20799718687745       21.24180561870573       17.82510759160096
H           20.51770139524145       22.05550736328980       24.50187863763050
H           18.97980419293004       22.93328606313332       24.31377822276349
H           18.78289752404374       21.39593250409460       26.23761462471369
H           19.29189856401681       20.03177137872668       25.23174978663351
H           16.76901666380358       21.71418024739534       24.82678384071814
H           16.81900418974416       20.03319954306564       25.38708048059961
H           14.85249097670230       14.47915241675956       18.00356475491578
H           16.51059360064165       16.24156464429401       17.55502657285985
H           16.14837672290279       17.74860046890439       21.52118812522979
