151
 energy: -221.325460405503 gnorm: 0.008252165744 xtb: 6.7.1 (edcfbbe)
C            8.70947895858655       17.28189752827772       22.89045518371962
N            9.15570513491639       14.81571221215811       24.15670059630798
O            8.85176170244238       15.46755362631607       21.24061916629856
C            9.56753182206691       16.20356882347455       22.22862084026349
N           12.23092085480135       14.81652284432615       20.92448787816252
O           15.87828931542979       18.59161116982740       23.31584444017857
C            8.62031018198283       16.17369369434764       20.04063551014550
N           18.86973366247906       20.02591290292292       22.08824122083314
O           28.40651020888633       18.63948891464743       13.25945655497037
C           10.04951336602445       15.19633949207599       23.25659700321536
N           20.24199683249723       20.06904835852064       22.35237846811671
O           24.62943708770378       20.36031762283511       16.70286162043882
C            9.50763280689057       13.95265858911639       25.09370642774274
N           21.41568047527047       19.93943119349433       18.97409797100875
O           19.90994335180550       21.35604569991102       18.07171513851526
C           10.78400798635392       13.42235435700923       25.19427321470398
N           22.44491920361099       20.04320122090245       16.26375766910975
O           19.18624452531622       18.32809941704672       17.91677775645284
C           11.72129170971897       13.80600399484046       24.25334510050404
N           26.19612046030016       18.13482372021240       13.11347738348029
O           22.34109427307755       19.92741464443775       21.54785866924500
C           11.36461514477628       14.70598921734113       23.25016565069424
N           26.18827111911616       23.03545513904136       10.79742908812945
O           16.23582496827390       20.55839707389717       22.31082441331897
C           12.36575695129808       15.12061872356596       22.26049448490114
N           16.85449295146110       17.09884320461776       18.92321024430296
C           11.33645561242960       13.82615797200812       20.37853307463617
C           11.95552745555323       12.43048934222873       20.43724093324788
C           13.52169235394650       15.84010235385087       22.47566163804875
C           14.03766821608108       16.33513191971310       23.78922462759645
C           13.72116474717629       17.80948263909170       24.13174640398419
C           14.17497286023261       18.08933930605731       25.56648625521809
C           12.22404350479428       18.08402983483272       24.00529851467141
C           14.45384571369991       18.75650216286930       23.17807927113005
C           16.64499428702722       19.55019941046883       22.84659234605233
C           18.12269389094850       19.28111401017863       23.08961334012264
C           21.13012741424672       19.83857156670753       21.37291988820171
C           20.54558798468185       19.44574036787028       20.01757914759213
C           21.02803708614083       20.86184876226798       18.08666473791741
C           22.11114873083453       21.22243545635817       17.05704900526993
C           21.66205148047068       22.41300419107601       16.18424776773686
C           22.49214801365535       22.52724798769015       14.90856790026574
C           21.78035297639624       23.69283744518706       17.00811395383419
C           23.74136272428889       19.73678140526914       16.12111528971982
C           24.17592920889352       18.67067236667911       15.09376551055771
C           25.55290173037574       18.10925406936918       15.46199010270348
C           26.18730933879863       17.32358952193854       14.31021179923311
C           27.29280695650390       18.84630497077959       12.77778266172496
C           27.07600532244484       19.87328843099858       11.78785165043316
C           26.99641390955448       20.82468044370274       11.05346124383532
C           26.81689538681266       21.91121054475373       10.09080779769621
C           24.91124644178713       22.71656710313276       11.40413684127406
C           26.09466968762984       24.26915277203535       10.04564171939761
C           28.21723930223076       22.30285746947455        9.59404726018513
C           25.98708440277193       21.35159014678813        8.91418159325609
C           24.86592963092740       18.48042866168122       12.67424913933228
C           24.19869627467982       19.36704243283062       13.72483513756766
C           21.33390523808701       19.31104775578829       15.69436308131143
C           20.41234991859042       17.91439029534559       19.93505258318203
C           19.24200577013682       17.47310535438555       19.04763078729526
C           17.91549117072913       17.47644596199617       19.82781041054187
C           16.77576377212751       18.05084197831549       17.83214112127138
C           18.09942765855675       18.01552107055965       17.07192986083308
C           20.65408559892657       20.50877481420976       23.67544230233782
C           19.97637342580602       19.63953462989280       24.73111514905044
C           18.46318346071591       19.69435219876040       24.53602008871918
C           14.14627297088048       15.98369194674437       21.19912490852866
C           13.31436129511275       15.32793500359043       20.26276002722254
C           13.65000458850220       15.28873238713940       18.91396671932353
C           14.80874822943762       15.90876221278859       18.51589305011646
C           15.66064552170077       16.56584976393489       19.42839614135258
C           15.33192393415154       16.58903458079091       20.77207680601173
F           23.28395276084561       17.59290060209146       15.03634806861085
H            9.26522994151221       17.73874862052432       23.70285387917943
H            8.44149809161495       18.05151677707594       22.17288572746212
H            7.80945868038272       16.82369313032812       23.28895738256591
H           10.44415616865287       16.66881121963302       21.74699086197812
H            9.55658820138803       16.59051693639390       19.64988273059910
H            8.22027506933735       15.44575598174747       19.33822838074458
H            7.89561075187040       16.98006811401127       20.17852937126364
H            8.72624895958704       13.68561026234213       25.79206021196419
H           11.03042267734127       12.72871314087419       25.98115423907171
H           12.72560402234000       13.40824974199184       24.27588113258688
H           10.40051836663451       13.84497365648073       20.93991024131553
H           11.11971553772780       14.09583539373726       19.34263959197644
H           12.90238059233684       12.41398568963066       19.90304706674302
H           12.13465802236601       12.14178194774669       21.47034655318813
H           11.28246773672279       11.70793865377261       19.98539997023372
H           13.61285389765097       15.71983507138473       24.58470733908750
H           15.12293806739292       16.21433727420784       23.80611331561360
H           13.63658196519201       17.45268814093734       26.26197563170153
H           15.23905626082874       17.89612387014611       25.67065876794726
H           13.98425205454292       19.12756291557871       25.82984442093932
H           11.99317546204464       19.09986378950479       24.31755530222883
H           11.89810811384937       17.95719099527123       22.97749364223331
H           11.66568863427704       17.39358036064307       24.63166104852677
H           14.20890947982940       19.80061111836109       23.39315639992381
H           14.18564684609446       18.54716401588151       22.13862972708363
H           18.32968817655928       18.21451438971192       22.95905075670696
H           18.47978415668554       20.96935791839543       22.02165812340598
H           19.57721626946807       19.92596227262484       19.86975795670818
H           22.38265073995260       19.66468296198517       19.03567169630663
H           23.02763536655661       21.50005756406530       17.59160264745153
H           20.60921208645489       22.26789350892502       15.92353533587602
H           22.27689843697194       23.47140220625870       14.41683798609340
H           23.55549204964970       22.49362813777772       15.14078465278223
H           22.26063192534353       21.72376079630920       14.21507576833329
H           21.21905663013214       23.59905092549003       17.93435599540361
H           22.82180698549296       23.89632182108533       17.24585633195262
H           21.38034317471655       24.53445540304756       16.45026716001399
H           26.19260584144228       18.95046994953503       15.73208390997011
H           25.44969380663575       17.46642814732369       16.33673685228195
H           25.61924317351656       16.41162222137110       14.10942388263380
H           27.21745793563814       17.06603057417906       14.56222684374509
H           24.97952647992442       21.75950675933663       11.91634325773476
H           24.67975548522447       23.48699844181164       12.14044411704402
H           24.08506993581119       22.67602829667949       10.67742384327555
H           27.07039997803786       24.55966347822701        9.66956859425737
H           25.38446671621328       24.21463474350377        9.20734097245611
H           25.75061064979801       25.04604196459074       10.72745626201843
H           28.15569884540392       22.89063690278594        8.68334816616600
H           28.73786048998669       22.86905084226174       10.36193251660763
H           28.78884167756874       21.40253840579504        9.38424978630859
H           26.53272784153843       20.53887974027214        8.44271953003815
H           25.03017049766834       20.96936757355325        9.26398204369716
H           25.81177981852647       22.13279846932402        8.17810923598079
H           24.91611456757736       18.99731607943535       11.71602355875307
H           24.29621686231377       17.55457275766635       12.55694416187936
H           23.18392332502932       19.60794472548756       13.41266754583321
H           24.76490153211127       20.29311874452021       13.83766244699203
H           21.43513824492507       19.19055144042094       14.61752964440929
H           21.24125447753396       18.32644116294273       16.15203065464769
H           20.42174715289361       19.86183639866024       15.90391853587003
H           21.34809359304361       17.51871918093693       19.54109112320623
H           20.26283825678138       17.50385278477934       20.93262877366260
H           19.41426728168495       16.44168540136317       18.69507328974895
H           17.75533121847526       18.47544238556770       20.26796697041403
H           17.98606509124051       16.73401278437485       20.62360104080321
H           15.95431513911010       17.80049248943624       17.16472168563617
H           16.61776350220979       19.07147315850261       18.22235589281740
H           18.10825029811320       18.76890451968360       16.28253021941726
H           18.24458382104367       17.01617763869577       16.63630150641925
H           21.73996081983266       20.42614782347777       23.71488437342994
H           20.36753508334128       21.55787952489499       23.80617388846034
H           20.24062261407574       20.00168796166354       25.72291168256802
H           20.32821418562435       18.61148325093743       24.63160613818602
H           18.10265569685695       20.71085127902900       24.71716149134278
H           17.95731897686994       19.01925216946469       25.22639329411675
H           13.02829023346249       14.78083117887560       18.19333088976903
H           15.09691120201396       15.86883115215398       17.47760768829878
H           15.97686903609346       17.06412476323271       21.49279898901431
