151
 energy: -221.310400961407 gnorm: 0.007527823153 xtb: 6.7.1 (edcfbbe)
C            9.23477692199169       15.42962441034703       23.32807815258643
N           10.55936609055537       13.02526242666580       23.89135311087913
O            9.43755514786431       14.00710961426276       21.32442081370982
C           10.14908365649697       14.77507266321776       22.29313235703878
N           12.78021770380164       14.71756717144352       20.31704187758297
O           16.06133919110741       18.24142485543715       23.46551729779878
C            8.55376334708442       14.74459891573534       20.50750382842624
N           18.66840120021980       20.29830800071625       22.11837187883186
O           28.41445744339189       19.26023040433392       15.39168650866706
C           11.09843018821846       13.79899084233419       22.96159016638725
N           20.01102469525101       20.11151961297370       21.76942488522314
O           23.83890531708903       22.08249513895337       17.03925743480821
C           11.31183518315557       12.13454586587140       24.51305761727144
N           20.27551293311167       21.39675599244907       18.39270902163774
O           19.56791590223807       23.54458266706426       18.26231741695917
C           12.65860123334671       11.95827740979912       24.23839325122495
N           21.81046370200651       21.55559305589828       16.22923450555551
O           16.81769307840995       21.79374114399408       18.74384230420684
C           13.23163199062791       12.76188479628702       23.26967614519654
N           26.47373858855030       20.42013530905198       15.21595760345980
O           21.62058806812707       20.12434126020328       20.20265311653919
C           12.45192774498490       13.70678491680875       22.60288314319893
N           26.84575461814179       19.49344652078335        9.99168051975264
O           16.20393229816816       20.47376130495453       23.30389031145638
C           13.08126550085220       14.63548868852574       21.65878136465005
N           15.64827249937535       19.28614373984162       19.14570633112123
C           12.04096343058030       13.78364861387941       19.49370247867335
C           12.10478406740257       12.33970507528601       19.97461914688740
C           13.98253150145179       15.61976823304918       22.01247309189709
C           14.66504683500491       15.77188318472115       23.33674654885879
C           14.19303768760994       16.90993909479724       24.27193758638294
C           14.79248267153194       16.66474791759132       25.66009899585965
C           12.66796740805690       16.92568659953613       24.36029499699529
C           14.66010858455897       18.28580910915088       23.77684849822917
C           16.68865231395882       19.37044228121826       23.19271241891142
C           18.11061265006937       19.09282715274385       22.72662404178743
C           20.45760627291743       20.35642649949306       20.53075371450356
C           19.48362849507964       20.96937727926744       19.52372408996473
C           20.28526224475465       22.63375673493848       17.87328129113628
C           21.30340392453942       22.82260411937990       16.74372880006202
C           20.84871438421651       23.82832354035040       15.64988786487239
C           19.37006314046542       23.77530573428901       15.26205324751412
C           21.74236564870259       23.70036317984780       14.41633414025120
C           23.10248028608672       21.28139717951797       16.46759510758887
C           23.72357922600436       19.97148060686098       15.95942268973841
C           24.89284786281464       19.51412302411163       16.84191431951697
C           26.16579670417875       20.33295169042571       16.62379721051050
C           27.56648381914855       19.82941082633646       14.70452166309317
C           27.69307145461632       19.90870229864664       13.27281984887186
C           27.88396374515809       19.87961547487395       12.08456047862560
C           28.08863116525713       19.93397847123255       10.64008851007516
C           26.38516383594047       18.18578606202097       10.41532670298455
C           26.84716499671824       19.58089930875832        8.54566376131243
C           28.36058951484210       21.41132850342453       10.30239434682785
C           29.32995689397830       19.08244608072278       10.30686086239334
C           25.42077526901065       21.01170527693798       14.42782958499432
C           24.16943310066961       20.13617183126867       14.50025826184497
C           20.87346568496198       20.66033837806667       15.57538685291909
C           18.43485113694229       19.95607930880073       19.04859037763096
C           17.36587998524918       20.62169264050848       18.16439833617288
C           16.24308332932697       19.61188286076856       17.87109186102884
C           15.02681542521652       20.46108673680435       19.72971524655044
C           16.08887186219001       21.54111965127024       19.93362127104213
C           20.91050822665998       19.64928282806337       22.81856288636398
C           20.38373228272960       18.35073728111275       23.42192926713352
C           18.95160630173236       18.56821183227778       23.90445617807683
C           14.21514194540897       16.38317735701868       20.83337299722231
C           13.45224397267451       15.79131866203604       19.79669584261035
C           13.46339836379892       16.32048723560396       18.50987376745759
C           14.19103303337840       17.46833123205324       18.27298703409880
C           14.92689425445881       18.08174679608486       19.29711515499259
C           14.97279026320510       17.51422169192722       20.55564544047272
F           22.79095954045288       18.92387633154435       16.01193556925825
H            8.60268874680946       16.18025822393020       22.86311770277026
H            8.61874664887917       14.66692541079219       23.79307836843510
H            9.84175856107305       15.90935190320857       24.08884957140616
H           10.72788314339721       15.55569740900091       21.77034332524859
H            8.23295455196778       14.05776152648818       19.72531167655123
H            7.67727165739909       15.09074203862107       21.06272798742785
H            9.06069523188065       15.60752717431043       20.05807709585032
H           10.80461202608335       11.54447340317848       25.26393670862541
H           13.23850656082022       11.21975104648279       24.76745881822197
H           14.27487329119208       12.65489220827615       23.01099401998101
H           10.99382446690353       14.09172874606229       19.42447045841697
H           12.48094319777028       13.84269394736021       18.49485362815337
H           11.44735306908843       12.18342796247886       20.82531931272282
H           11.77600426043438       11.68723425438876       19.17032688527613
H           13.12120055959444       12.06848693753212       20.24980465213677
H           14.53482227885727       14.84080194434425       23.88918402293444
H           15.73239553055878       15.91079892063920       23.15426400801720
H           14.47691630192252       17.44129100042720       26.35288631343953
H           14.46556160124797       15.70511251317940       26.05151593115181
H           15.87815709654230       16.66736609233897       25.60766644248971
H           12.32870382742493       17.73542880155384       24.99984779284881
H           12.23088486354587       17.05642670325219       23.37425257543872
H           12.31226119389199       15.98442108122701       24.77142806371096
H           14.49103147236303       19.05430525894620       24.53682937546432
H           14.11762867040537       18.57461741118688       22.87203226397837
H           18.06833213252382       18.31810639842165       21.95170426358739
H           18.56884638346101       21.08325891719942       22.76365445295261
H           18.98945662049665       21.84620586930235       19.95250747434363
H           21.06098518674623       20.78370819726383       18.21133171833792
H           22.17235168594835       23.28330403962950       17.23702346407539
H           21.01158746328906       24.81627385694459       16.09299919063254
H           18.74739993396980       24.01326993866491       16.12266113783878
H           19.18564789320730       24.51696574972554       14.48794042077028
H           19.06736750771669       22.80631712148065       14.87353248197602
H           22.79107303943325       23.68765554139682       14.70463118568040
H           21.51625300120592       22.79112716116700       13.86701341627102
H           21.57849529092766       24.54698338416526       13.75559573255563
H           24.59747705087996       19.57454351944244       17.89028368997202
H           25.08386256895085       18.46746364602185       16.59465260011231
H           27.00791447356821       19.85553137924800       17.12788807107816
H           26.02319139902855       21.34120679284897       17.02080429167744
H           26.95018742454369       17.35893908596008        9.95760966369806
H           26.45882080297459       18.10243105824797       11.49843899821398
H           25.33873849104952       18.08286449790634       10.12626661609289
H           27.13726045724619       20.57767299671065        8.22855663052746
H           27.50860129536176       18.84246695109983        8.06798411113271
H           25.83053309015662       19.39511979149849        8.20042972322420
H           29.02015315633523       21.84102049024348       11.05472738014645
H           28.84244926589009       21.50141284266096        9.33197442759860
H           27.42363783307874       21.96340925821472       10.29910395426373
H           29.55919633746752       19.14987438829733        9.24641015658700
H           30.18234138616254       19.44799249368795       10.87384737265092
H           29.16417983703318       18.04064728547278       10.57296713081228
H           25.20260980360895       22.00107815281526       14.84278154179585
H           25.74876533666228       21.11348184358330       13.39366685855626
H           24.39033282834669       19.14355297419429       14.10238718649213
H           23.37545316670916       20.58290043235166       13.90362175208682
H           20.67008569187184       19.77553359935798       16.17693015656775
H           19.94220936306473       21.19326436054276       15.43426886967997
H           21.25271160544828       20.33749421438196       14.60780067329430
H           18.92699182965725       19.17354613982959       18.47118455534715
H           17.94015164053826       19.50652263393538       19.90540564158727
H           17.81466702736322       20.97807773668579       17.23242990838857
H           16.65453572085587       18.70876165412531       17.42104580658568
H           15.52506714454883       20.07615167950543       17.17309519443235
H           14.22995997505691       20.85035110985209       19.07061049487774
H           14.58800057374353       20.20587820673733       20.69471595422568
H           16.76393751488163       21.24405081908298       20.74497822237501
H           15.62261074289956       22.49275963808720       20.19337619875964
H           21.89236435563859       19.51500957870814       22.36493294328739
H           20.97226407715871       20.42705961014034       23.58772778629029
H           21.02388893114196       18.05095827709047       24.25005414960048
H           20.40462615736786       17.56570313110175       22.66502828236815
H           18.93672346925938       19.30027742515900       24.71481591484686
H           18.51987940203711       17.63708743249903       24.26781843128149
H           12.89331300022287       15.87196809485640       17.71034613319958
H           14.18189207512602       17.90945714634555       17.28774852860052
H           15.59817476019298       17.97003000032893       21.29982970962445
