151
 energy: -221.328689999950 gnorm: 0.004666383028 xtb: 6.7.1 (edcfbbe)
C           10.82624993392809       17.65230729782076       24.61126946813887
N           10.92493311387487       14.83239485761578       24.68647926647841
O            9.98856709907980       16.63477824530602       22.53790976861699
C           11.13817305677573       16.82755616828113       23.36079243366106
N           13.03419507997368       15.80855646352322       20.86596522518420
O           17.49920476006668       18.24413979808834       23.48381889469351
C            9.49503093141263       17.80803872187875       21.92813503041479
N           19.89720374776072       20.55748098825198       22.42049090666552
O           23.08172256510164       17.44849106016041       13.34012747483337
C           11.62458281984345       15.44041767069977       23.73948467236577
N           21.28216922670500       20.68235822170114       22.29175794863049
O           23.04090289637288       22.45305644074583       16.67504978114831
C           11.28784217823077       13.62890966915884       25.09044512302524
N           21.25184475965553       21.70072343504427       19.01810288062255
O           19.28154555772955       22.79350612304331       19.20748585584171
C           12.38196051113771       12.95393897848363       24.57223861084724
N           20.93297171572213       23.21155678293723       16.48123742139505
O           19.46383063358447       19.99141189687733       17.54325003872183
C           13.11433699987104       13.57662635831817       23.57850252222152
N           22.82023129933165       19.67526078191387       12.99843480309161
O           23.07835773313685       20.71287086149152       20.93546915816210
C           12.74370432658245       14.84556092723319       23.13562737584488
N           28.12426663955751       17.59259510326530       11.95458555772414
O           17.44178136404714       20.47177019702102       23.70593148531098
C           13.55108351078424       15.50963110983238       22.10617091402433
N           17.38246581839648       18.33453898009313       18.54932269566388
C           11.79908386678297       15.29967383163987       20.32342000939127
C           11.96569524445402       13.87836320675925       19.78939404378321
C           14.86055351231969       15.93471318855621       22.19334014400362
C           15.83438625784897       15.70322507469188       23.30702127722463
C           15.84659316412823       16.74206527801053       24.44799183557303
C           16.93335332106516       16.35494806794057       25.45494191514640
C           14.49312750770441       16.78453527781631       25.15284141372423
C           16.12668584837455       18.14199001703184       23.89096238236660
C           18.03901864946685       19.44228669882942       23.47073672463626
C           19.53104545993659       19.38779497299115       23.20559306266222
C           21.86265105370227       20.65325841492808       21.08292763733096
C           20.90891131788135       20.59873372489863       19.88623539680240
C           20.42339322847894       22.72082005826667       18.77359128794422
C           21.03615185614478       23.76954673510141       17.83240234291731
C           20.40142952988754       25.15769653494210       17.98299707781928
C           21.04832572404239       26.14744900283302       17.01709394817738
C           20.58755192578126       25.63594542601116       19.42342196456832
C           22.00405487755856       22.56655971800594       16.01194230861846
C           21.96744193424421       21.87929354271541       14.64072142587388
C           21.42243888520707       20.45982163836013       14.83542185453548
C           21.47328594218229       19.68190633635969       13.52169577302261
C           23.53322619029250       18.53422541154712       12.97089386544209
C           24.86005733555451       18.63868894292045       12.42087862699249
C           25.96404946196737       18.56683640112088       11.94493224959364
C           27.27388316802751       18.59197800172893       11.29836408374600
C           28.27365978120122       17.79642425216148       13.38095889651433
C           29.41006118720346       17.36669918527669       11.32915720459431
C           27.02576389252940       18.20167312171835        9.83114944471260
C           27.80824165734136       20.03908441395492       11.36394434991800
C           23.35397650119445       20.99045862673919       12.73826749297678
C           23.36701937128627       21.82576687024451       14.02225509967371
C           19.60462576630790       23.23631278932835       15.90456861753277
C           21.02843201872948       19.24201953697992       19.17605748226120
C           19.77147568137243       18.88427781301529       18.37277324594450
C           18.61008467969289       18.47871630848442       19.30483298916696
C           17.10762194351715       19.56870721092788       17.83387184272387
C           18.24712356278939       19.80198055564541       16.85147892963438
C           22.05388049197417       20.72599428565900       23.52399021474838
C           21.75594083752256       19.47614574008698       24.35030488245226
C           20.25009401385165       19.35182143697147       24.57047230984790
C           15.16671379356401       16.54756272263443       20.93954501691574
C           14.01684139296905       16.40989255451383       20.12930545069982
C           14.02472872522773       16.83438004769877       18.80605990710844
C           15.15974986373400       17.44177144150435       18.32877579906618
C           16.28909033834903       17.67915633065649       19.14169511623302
C           16.29667688111320       17.20703369259981       20.44400292847325
F           21.15252564375128       22.58034609554755       13.74356269993307
H           11.68979120595151       17.66356737774247       25.26838427586132
H           10.57702931566174       18.67471758216270       24.34227827419881
H            9.99131946565519       17.19524057583819       25.13556428336409
H           11.91309430448658       17.33830710196540       22.76203496633872
H           10.30301118039144       18.35854536672320       21.43334591123195
H            8.77069371511121       17.47652138399085       21.18746807603375
H            8.99945626051088       18.46181271004888       22.65058917616979
H           10.67335849019805       13.19371035322491       25.86662059303131
H           12.65128790949347       11.97197616559712       24.93264229221140
H           13.96712411691536       13.08656060717047       23.12890169302212
H           11.02955339516602       15.31798124060177       21.09816543474146
H           11.48921885599588       15.96766214624783       19.51647987789804
H           12.76279108283450       13.84321116531635       19.04973410898223
H           12.21263823875453       13.19711727937965       20.60027606192343
H           11.03998087735344       13.54846153550568       19.32738688739741
H           15.63519022031745       14.72949398499346       23.75751890692176
H           16.83387566282968       15.67540697053210       22.86892330343540
H           16.71287770288294       15.38092163361718       25.88255675745618
H           17.90467448141550       16.30908254909155       24.96989699174142
H           16.98026338304568       17.08327296823206       26.26107024268515
H           14.52889536163240       17.45281224493478       26.01015892352493
H           13.72731305211629       17.13522531230693       24.46882148372093
H           14.21709450344029       15.79271069293016       25.50174630556709
H           15.93976874509606       18.91151374125344       24.64697922241331
H           15.49237863949554       18.34842502558096       23.02398491737440
H           19.77275045826677       18.49118132766093       22.62696784708361
H           19.49756675298577       21.39101040408590       22.85348505687326
H           19.88703175799312       20.77854335209339       20.22516987562843
H           22.18470641082313       21.70513858564654       18.62474410756069
H           22.10612107334394       23.84941529203455       18.05215913743147
H           19.32912645526349       25.08720229967944       17.78667941664310
H           20.56834202057813       27.11801949966626       17.10455204557189
H           22.10404874915823       26.26194146766367       17.25341347331074
H           20.96678976135479       25.81298882382428       15.98702570949784
H           21.64125160590961       25.64597839562570       19.68998483690845
H           20.19166109160832       26.64081634087273       19.53263966831699
H           20.05998660035129       24.98244942218069       20.11112114785923
H           22.04888598563318       19.97029796125198       15.58294612937710
H           20.40422955256414       20.48517262247897       15.21915832098750
H           20.81335550199463       20.15208618269617       12.78612579280568
H           21.16764414587228       18.64648467296757       13.68038329195600
H           28.91840965123322       18.65254902167576       13.63448351209549
H           27.29368595564934       17.94600902485734       13.83276879492877
H           28.71790551398895       16.89877837582786       13.81071939367251
H           29.27709970904991       17.09226143019252       10.28685458861227
H           30.08690505537377       18.23238001041299       11.39278780334591
H           29.88610093619240       16.53066730142468       11.84006023233538
H           26.17492501278340       18.75872816850309        9.44733145930974
H           27.89262386399187       18.43329632261765        9.21947275073442
H           26.80472993521462       17.14004328994441        9.76637465464417
H           27.87242644911112       20.38129610017821       12.39399949171313
H           28.79347838160456       20.09400171219939       10.90794187329481
H           27.13708024856231       20.69890279724527       10.82132438826394
H           24.36527511989578       20.89818378099747       12.34293912988335
H           22.71832299790198       21.48279887704654       11.99502096903414
H           23.69758892325899       22.84017362053831       13.79787334464928
H           24.04602194714983       21.39706978725825       14.75854011140886
H           19.40263603391008       24.20807132544283       15.45480845153266
H           19.48348051693461       22.47232217139588       15.14701902251721
H           18.88580348478013       23.05360511929262       16.70344328218045
H           21.88939365824859       19.28316359125253       18.50747685015012
H           21.20837386408363       18.45912645536220       19.91230020832846
H           19.99120885902360       18.01870842922592       17.72318460570471
H           18.49913694386526       19.22865635728574       20.10548094280810
H           18.86935089352773       17.51625853166945       19.74905107796901
H           16.16384402734381       19.50461687907494       17.29956565234741
H           17.06563533232888       20.42317509944129       18.53101859094966
H           18.07938661377597       20.71262120974798       16.27609987532606
H           18.33197504516863       18.93818836852486       16.17593087042034
H           23.10568664015272       20.78482299347168       23.24457583358574
H           21.77247497359324       21.62782949985255       24.07732040303067
H           22.27110634662672       19.54299965191924       25.30683581980329
H           22.12438616195224       18.59835854530323       23.81734136979771
H           19.88950753314352       20.18786955043210       25.17555140729165
H           20.01055702807367       18.42250330532419       25.08573283873915
H           13.17646012252787       16.68461656010151       18.15630425399563
H           15.19248712429912       17.73436039347127       17.29124080778584
H           17.14860543831692       17.35107630109325       21.08839862625602
