151
 energy: -221.330289478763 gnorm: 0.008971149941 xtb: 6.7.1 (edcfbbe)
C           10.37534214048922       16.92348091281021       24.84249214756579
N           10.90976080140183       14.17969822772775       24.58767714564161
O            9.81781533920258       16.11785734485855       22.58847036039980
C           10.87444501193833       16.33947923025987       23.52014579731470
N           12.98426256643036       15.73252985469388       20.92121987820204
O           17.25070863799394       18.52322983557821       23.51649375224727
C            9.23738746904715       17.30034292621137       22.07471141529679
N           19.83842176266983       20.64093087584092       22.53179763993509
O           23.31475537907038       17.47868186203114       13.21103412712987
C           11.54079006762036       14.99686591811141       23.75525181347033
N           21.23112240013565       20.66930014011649       22.42196956172765
O           23.35988330538956       22.49563990157283       16.72930609041042
C           11.43281870455739       12.99813706405363       24.86205184375616
N           21.33467072510361       21.69332031419528       19.11571059591089
O           19.48510931124340       22.97889569168106       19.29512329599062
C           12.63500519773342       12.56138046374524       24.32769636112294
N           21.22772688000125       23.20355921985051       16.58369509084461
O           19.37145909494039       20.08111048583627       17.69239511362728
C           13.29646307301761       13.40324539461075       23.45171590961010
N           23.04491266637953       19.72141408775324       13.02367148126796
O           23.04415868177276       20.66653240340667       21.08963593441873
C           12.75128716248220       14.64962290173720       23.13961653780643
N           28.25753105267666       17.69468624928345       11.55620149765774
O           17.38416839240616       20.74234531917599       23.80889644963004
C           13.47288330784089       15.50273285133349       22.18662909035307
N           17.24287607022912       18.49211672370669       18.70380424621863
C           11.82325374705566       15.10299055155102       20.34602351947606
C           12.15356816498960       13.71458433336658       19.80073347198054
C           14.71321263066714       16.08641622759992       22.33289212125939
C           15.60154746619314       16.02022967487292       23.53458761849233
C           15.48085923055592       17.19388615206984       24.53155406901293
C           16.41903745661124       16.93200332158094       25.71159925928032
C           14.04608130992463       17.32857726381726       25.03787323370496
C           15.85482310454467       18.51632760719343       23.85248077738048
C           17.89017484665742       19.66980634774178       23.55554790389443
C           19.37698049577493       19.49420725956485       23.30223344600533
C           21.82515972707326       20.65049775849976       21.21919292592618
C           20.88885857059054       20.64953445561126       20.00814352561523
C           20.61591033267865       22.79319789870300       18.86676736417339
C           21.33390498943309       23.77246424313246       17.92619464521822
C           20.79740965599972       25.20730094530320       18.03429188391817
C           21.50228471597195       26.12018139141842       17.03482419550849
C           21.01885617276185       25.71435045206033       19.45877901335796
C           22.30532492276420       22.58141944070356       16.09443281895321
C           22.23780322734894       21.88780016805042       14.72858127326962
C           21.73945534851601       20.45328094561882       14.94523241679226
C           21.72764291614441       19.69923876886748       13.61766110212105
C           23.74529506188685       18.58380912105364       12.87350200233337
C           25.02777657673255       18.70603807523841       12.22758802013647
C           26.06539966612523       18.57982474801722       11.62831543779124
C           27.28800343174730       18.52231983353725       10.82942478684091
C           28.59849831769405       18.20572609368731       12.86849600512532
C           29.45068909880661       17.32904949998583       10.82326689116921
C           26.88150245010649       17.84069310832712        9.51119025044193
C           27.76168170572730       19.96294722332013       10.54351591182325
C           23.55639699217250       21.04401739201591       12.76159536417655
C           23.61269663839702       21.86334553589489       14.05483172251173
C           19.90199015137172       23.22166276626324       15.99954492651055
C           20.91301938480182       19.26964236358025       19.33226444680638
C           19.63605226027204       18.97320984021670       18.53773271914863
C           18.45851222449055       18.64600295627551       19.47553446810203
C           16.99355033222381       19.70127383154782       17.94216558417291
C           18.16156468026253       19.90932591540948       16.98348600692333
C           21.98430883378137       20.64779218768604       23.66560892054550
C           21.59501890608550       19.40634512833391       24.46590882683936
C           20.08092583547073       19.38280670681442       24.67030951747883
C           15.01797049776280       16.70174842006186       21.08053012136530
C           13.92585989700024       16.43758865784548       20.22258941861077
C           13.94659414492470       16.84671203347768       18.89379391561357
C           15.05387338093898       17.52285420762892       18.44089995717527
C           16.14422802933469       17.83419674152874       19.28142222307212
C           16.12340131130101       17.41488138287359       20.60185893770452
F           21.37404892280107       22.56542696114481       13.86064178457370
H           11.18341389915290       16.92119916068510       25.56798500960696
H           10.02756405529907       17.94457692837631       24.70734559432065
H            9.56441111422055       16.30394061902726       25.21346341600919
H           11.60449630985567       17.02431538322233       23.05391107442048
H           10.01277096474488       17.99071484694308       21.72296988393193
H            8.61751175441449       16.98799397441034       21.23770591394323
H            8.61622981891094       17.80127075941174       22.82116511232695
H           10.85823292624070       12.38336693239467       25.54078410914073
H           13.03463418934753       11.59307023244057       24.58255550304136
H           14.22288783275489       13.09895852155775       22.98897518111076
H           11.04239665787659       15.02903903294516       21.10727143854952
H           11.45604137239510       15.74291212683982       19.54054388773960
H           12.95066631786166       13.77936278168810       19.06285352107638
H           12.47826440073236       13.06064862908167       20.60710345075395
H           11.27396588255110       13.28048987829331       19.33518745244976
H           15.38472550260733       15.10082557166575       24.08266101557602
H           16.63785397118674       15.97737688136866       23.19098933977541
H           16.11108577460762       16.03254237609601       26.23756120931094
H           17.44009089354312       16.79778413459269       25.36378833633803
H           16.39682535475567       17.76333212045500       26.41098272397115
H           13.98118442328066       18.10446621629097       25.79543427827142
H           13.38230488471190       17.58737255344392       24.21993040620562
H           13.71079928326669       16.38942433156268       25.47009333189389
H           15.65749863043713       19.36730409617945       24.51272550370577
H           15.28388515556475       18.64766589945146       22.92927425716586
H           19.54808917618478       18.58858570725091       22.71247317867473
H           19.49784178122017       21.49726891640165       22.97325920244957
H           19.87945730458107       20.91893404718197       20.32362627281548
H           22.27974161080528       21.61750292604004       18.76314240027377
H           22.39999274272095       23.77761090769038       18.17640980065885
H           19.72118000786487       25.20238515649026       17.84044654056560
H           21.14602011297687       27.13963959814770       17.15169978580196
H           22.57670472598701       26.10990929961665       17.21056399676171
H           21.32147068128151       25.80572091315745       16.01143476770376
H           22.07755070298792       25.71520157937291       19.70756816538127
H           20.63890490224629       26.72674681123437       19.55593424272264
H           20.49486377534711       25.08392300009210       20.17072354385546
H           22.43139574378471       19.97303007615141       15.63896787868363
H           20.74844118765586       20.44504090120094       15.39781921009696
H           21.02257989006605       20.17442258069314       12.92720561205156
H           21.44415694790846       18.65552557633525       13.76864957630092
H           29.34251856898540       19.01616758461532       12.83692801948270
H           27.70037260788747       18.56750130751745       13.36510990157182
H           29.01196529585315       17.38857491081538       13.45946598395334
H           29.18783186071564       16.85141846570770        9.88612207621881
H           30.11567261424975       18.18150193422514       10.61674162133311
H           29.99929063810634       16.61015392747484       11.42603101320113
H           25.96329352157018       18.28552269072929        9.13929089229828
H           27.65365914558186       17.96495286239487        8.75620422560630
H           26.70852921693974       16.78232233492534        9.68558424694098
H           27.99883525203294       20.48463001456924       11.47349740887502
H           28.64959232064057       19.94309997406582        9.90970708494207
H           26.97163779962296       20.51071117779746       10.02913192535514
H           24.55233995686912       20.96543899147674       12.32388843266897
H           22.88935411855703       21.54557071148173       12.05077641311909
H           23.91814338491264       22.88515703820877       13.82839341642489
H           24.32818479614043       21.43840445402082       14.75790261312316
H           19.76097812025069       24.11133480910472       15.38353633605180
H           19.72763571722581       22.34209374899441       15.38838950296996
H           19.17571718815472       23.22341726825670       16.81079672749985
H           21.77665551743617       19.23323122382924       18.66707843945922
H           21.03582993849503       18.49565139717647       20.08952109096247
H           19.80516882632806       18.08791399763970       17.89863395074187
H           18.35673106852848       19.44261544631398       20.23125920702240
H           18.68372463965830       17.70308839146670       19.97411674949340
H           16.06396043239317       19.61968515348636       17.38337180293383
H           16.92936342924303       20.57823538063449       18.61060225709443
H           18.02168646807329       20.81832226157584       16.39796735965290
H           18.24457179186701       19.04007197008235       16.31434893872946
H           23.04232699552568       20.64697744360446       23.40535291623501
H           21.74874154115693       21.55601899047638       24.23041917005666
H           22.10246941319243       19.41944487845945       25.42924580804582
H           21.90790385743703       18.51431928973088       23.92047940735210
H           19.77359522204312       20.22839033832927       25.28998633504578
H           19.77415667869170       18.46170640618737       25.16350205074804
H           13.13227229526657       16.62511587247875       18.22143556409030
H           15.09946900602828       17.80223862944861       17.39999735999156
H           16.94105012399339       17.63306459791746       21.26906169532639
