151
 energy: -221.329354613230 gnorm: 0.006057638955 xtb: 6.7.1 (edcfbbe)
C           10.00379283298582       17.56118329273484       24.01693481683695
N           10.44793110915711       14.86170419533454       24.56416354063192
O            9.95047129307533       16.29269330222916       21.91626134291722
C           10.76563592157969       16.68977029668907       23.01781430802818
N           13.15193117584972       15.49498327660780       21.06969139958543
O           16.96293196487240       18.78261788180065       23.81560243306273
C            9.70792258263372       17.31641524449514       20.97490613487188
N           19.61194316521602       20.87351382774042       22.95075515001371
O           24.12001715891478       17.11321159948851       12.86976266673566
C           11.26415405545649       15.42067214310345       23.68373979499571
N           21.00686224813477       20.96058946094493       22.96591383325877
O           23.15534495033123       21.65319350291734       16.82313514713947
C           10.83086496070835       13.76791850275305       25.19730884739414
N           21.38763642770772       21.60171182799770       19.51620431425148
O           19.43124163932636       22.69774890568244       19.23107975067697
C           12.06224569394701       13.16391657354711       24.99398919573290
N           21.10592619354739       22.55072563399683       16.58088664177853
O           19.84612812774202       19.54214482824124       18.11263197167260
C           12.91822931822511       13.73498336284184       24.07015731991799
N           23.31869087845752       19.23419231958083       12.97148214362971
O           22.93964470859493       21.04330519259793       21.81564398357940
C           12.52671891147580       14.88479651392198       23.38751190818869
N           28.17835677886988       18.21226447819327        9.96996377246590
O           17.09477849088396       21.00639937458661       24.08289318263986
C           13.43804486811630       15.49965754254296       22.41563928933565
N           17.58129010213934       18.17724408063538       19.13105576794085
C           12.14611539974893       14.69075870935790       20.42126467761626
C           12.66128884484279       13.28521108614696       20.11658380029557
C           14.62980750493774       16.15001543376088       22.65212292212757
C           15.36947607319617       16.25939952841925       23.94976614270455
C           15.12029636834270       17.52448711889405       24.79816266026869
C           15.94141329556938       17.42285315483473       26.08794485924097
C           13.63873775126424       17.66004363267457       25.14550118346444
C           15.54217086735509       18.78238496228906       24.02881076417360
C           17.60653948646259       19.92491684676116       23.88245874484921
C           19.10816773411641       19.74420937704732       23.72602919852857
C           21.71919818312021       20.92659775736238       21.82721581796845
C           20.91574373534821       20.70654554199869       20.54396406511813
C           20.60741441624463       22.51886904260106       18.93720148387480
C           21.30949923776102       23.30238559876853       17.82091413386923
C           20.82490625630242       24.75551616069636       17.71956348607113
C           21.52169386877203       25.47373342642873       16.56662737620704
C           21.11480164872578       25.47365598463271       19.03712931030484
C           22.12432474773469       21.79522385994160       16.15720773161857
C           22.09657983485014       21.09377740857373       14.79275699812608
C           21.98971701530515       19.58053375685311       14.99921703544756
C           22.10902753757405       18.84845137336496       13.66290764855708
C           24.22909444799012       18.31390978874672       12.60955348265654
C           25.34693815342177       18.80604077808378       11.84548400332758
C           26.31333427078126       19.02653690343358       11.16136863500856
C           27.42601345527150       19.42731938626594       10.30294536494049
C           28.73838913980086       17.54361752423172       11.12727234728413
C           29.17092951021346       18.35228983923451        8.92466476813108
C           26.80193423144529       20.04360071325823        9.04165051565463
C           28.24481366052229       20.50480102319596       11.04737226807758
C           23.44232351287681       20.64974849896612       12.71871291797826
C           23.38202823224791       21.43472388244915       14.02973284931811
C           19.75909318882418       22.56659976505082       16.04802022602356
C           21.09076588736125       19.23426534662983       20.13525547412325
C           19.96275120515500       18.70081059164432       19.24881260486859
C           18.64325202843985       18.56353591655703       20.03307240520234
C           17.46491026481208       19.15231385716638       18.06548690257012
C           18.77538022976578       19.13302870759409       17.28605960507563
C           21.64745305372679       20.99437999343268       24.27143665150135
C           21.24231041009942       19.74106316465852       25.04661263988995
C           19.71944082836628       19.67333514443107       25.14109762285539
C           15.10764601278119       16.58099526863121       21.37606154765760
C           14.17534189007147       16.12584929383889       20.41732595399280
C           14.39234704006084       16.33140865716942       19.06074022799426
C           15.52173071157233       17.01419164846367       18.68019604040567
C           16.44166107927381       17.53080855284617       19.61738553432469
C           16.23210127516096       17.30201407804600       20.96889058415450
F           21.03476973655173       21.51953664892066       13.98932855494292
H           10.61437178382761       17.71912723340018       24.89995899985031
H            9.76201456083476       18.52502749226339       23.57814455475140
H            9.09133461379768       17.04977845627558       24.30561844414958
H           11.63201616360038       17.24375400828152       22.61978837502542
H            9.06593905914406       18.10022768864245       21.38538610199033
H           10.65091518137925       17.76152601665614       20.63497394967670
H            9.20319018676805       16.83954258589288       20.13734861721248
H           10.11641981738802       13.36507232027562       25.90137848889577
H           12.33875578918500       12.27766313931807       25.53991111364909
H           13.88336198219925       13.29626169468148       23.86168615900389
H           11.26400603926786       14.63879501566814       21.06361859090867
H           11.86167058628452       15.19281954538883       19.49318306804626
H           13.54393264854872       13.33255479092558       19.48353675747277
H           12.92223200031111       12.77082018298505       21.03818965950514
H           11.89075570042068       12.71672370846052       19.60514566902796
H           15.11830154727958       15.39644024855412       24.57124218655423
H           16.43785338088610       16.21599888946864       23.72428974955217
H           15.62711782828404       16.55981180863884       26.66712888871711
H           16.99856550187397       17.31924823107268       25.85669083991200
H           15.80312632482791       18.31498302550449       26.69459739900270
H           13.47436727436650       18.51663950154190       25.79576614254496
H           13.05177953570385       17.79261740194820       24.24236226653965
H           13.29001886830378       16.76632272305516       25.65674532896654
H           15.27932094318156       19.68598879232195       24.58667575243807
H           15.05984718533228       18.81774041045729       23.04937446580774
H           19.31938225654308       18.82257498483855       23.17384050435398
H           19.19999113630562       21.73283255457890       23.32080936003309
H           19.87075269280664       20.95928341446889       20.72372382725683
H           22.33866935117317       21.48224366545107       19.19486197050445
H           22.38724526466648       23.29991509144068       18.00894577650101
H           19.74365747030139       24.76021682600226       17.56166937809651
H           21.35353521253916       24.96549514393579       15.62088679047889
H           21.14361201328477       26.48839335345043       16.48180481239777
H           22.59325647545055       25.51712727505006       16.74610559446498
H           22.17997264411144       25.45526632211503       19.25885566638903
H           20.79275535944110       26.50922204695857       18.97027222377007
H           20.58090079586973       25.00002310868458       19.85788237002592
H           22.79701849181771       19.28571005096785       15.67077200080129
H           21.04022687645176       19.33475365179454       15.47484216656818
H           21.24843103360087       19.09597915854821       13.03118151717631
H           22.14374292796573       17.76868619211075       13.81841720164043
H           29.63418282469200       18.04466546392426       11.52530771689653
H           27.98734196775574       17.48272945936212       11.91376809574703
H           29.01539846741616       16.52993308335549       10.83810659990021
H           28.70374201037576       18.69480982521122        8.00549710632432
H           29.99473301088265       19.03289500392916        9.18893735780432
H           29.59562929727305       17.36669406787530        8.73928987640914
H           26.04222301173083       20.76529707755792        9.33047870408989
H           27.55732574437572       20.55558036382531        8.45197107947994
H           26.33340026223375       19.26800832044730        8.44262663360804
H           28.53227316016384       20.15972915701977       12.03720354927434
H           29.14225011108886       20.74211458214711       10.48117671856222
H           27.65085027428667       21.40837294007729       11.15322718566322
H           24.38843187366992       20.84145448854677       12.21214307175442
H           22.61567454583390       20.96700709696034       12.07264100180298
H           23.39453485741394       22.50325109102342       13.81169637655484
H           24.22875372788490       21.19771596853454       14.67105705436344
H           19.63742502008834       23.35660133999990       15.30367363229285
H           19.51124156225067       21.61298148696634       15.59078799071013
H           19.07160524031979       22.73406995797093       16.87644921573446
H           22.03863034075362       19.14827211832560       19.60169205268614
H           21.14782475713780       18.61272579263638       21.02873002895877
H           20.23798749751472       17.69034882730070       18.89730752728660
H           18.40878547513799       19.51071618485974       20.54379016436747
H           18.78653613361558       17.77959629136231       20.77585302559203
H           16.63056583725702       18.92080007589319       17.40844787791242
H           17.32341865679179       20.16506907976011       18.47982980647177
H           18.74332242383700       19.83517897135565       16.45362229662739
H           18.96235921203639       18.11629076227400       16.91065208766067
H           22.72309284550794       21.03821238965699       24.10322321555853
H           21.32477539111442       21.89622143007345       24.80226625822767
H           21.67821381519695       19.76849765815656       26.04386044825814
H           21.62247491658743       18.86005351845287       24.52607073942068
H           19.34742086462360       20.51884954618620       25.72663656132842
H           19.40311314578538       18.75004114553159       25.62676546816995
H           13.71108773950613       15.95519997615957       18.31373149682756
H           15.72199147467786       17.13811560035533       17.62817671555789
H           16.91474117563471       17.67499320922308       21.71281310676805
