151
 energy: -221.330668044431 gnorm: 0.008627751694 xtb: 6.7.1 (edcfbbe)
C           10.82965240794499       16.99343253459589       25.27251117815514
N           11.29561136772268       14.23711541583831       24.89280449486812
O            9.83771030775807       16.13887909178232       23.18574770717406
C           11.05793914219350       16.40408293629870       23.87949683067994
N           12.78885175427946       16.09930109030260       21.05163917584298
O           17.62044546357148       18.16801172406941       23.35025939746535
C            9.08103166497735       17.28307502075339       22.85233235697192
N           20.09083497695452       20.39577666490649       22.17693352345443
O           23.56455945471659       17.29960178085992       14.07687890632576
C           11.76775877086818       15.06765779429709       23.97370788286417
N           21.45704576976236       20.42552176375626       21.88080362147166
O           23.01117808914693       22.50513881468477       16.27299213800112
C           11.84707996176207       13.04465997159722       25.03797074873513
N           21.16035166906206       21.85566589337376       18.66730802258856
O           19.31076942925867       23.11970614315981       18.96020222766711
C           12.90038491292406       12.59724643738318       24.25756239611555
N           20.87960135261494       23.19778803895833       16.11522946146913
O           19.00586732927961       20.35563849751236       17.37395523469553
C           13.39783347622986       13.45586010508547       23.29379540650920
N           22.90040200252189       19.27420751797417       13.17855944461851
O           23.06821910360617       20.71321893294020       20.33722385053906
C           12.84165358221571       14.72589437488172       23.13900823220240
N           28.31638630649680       17.66555557729624       11.99794537980143
O           17.81308501640979       20.37633807115845       23.66298032939189
C           13.45185334361467       15.63600955226961       22.16426554121809
N           16.89094960054524       18.91662596983250       18.61661330435448
C           11.52697934630181       15.61329613833676       20.55165463107198
C           11.72215054094407       14.45565216790631       19.57383588641737
C           14.74350371602597       16.12011635489971       22.18787706767387
C           15.80524986385239       15.80813536806867       23.19413066748894
C           15.91788461697205       16.77946238389285       24.38933049648818
C           16.99252233575559       16.25276117292907       25.34295084549731
C           14.58467194612081       16.88830192175583       25.12531654417590
C           16.29867607446170       18.18233568857192       23.90837418587664
C           18.26408875221226       19.31247998968622       23.29777457090200
C           19.68205455489862       19.14075422566227       22.78738577442536
C           21.87930191990942       20.64754668976585       20.62770954228871
C           20.78524138024913       20.79464208463516       19.57011701517939
C           20.40309000157716       22.93518426277624       18.44330301282287
C           21.02591700460236       23.88049947479148       17.40392768161998
C           20.43952819278144       25.29651287635356       17.42246990688259
C           21.09548555657258       26.15922144347587       16.34765420901640
C           20.66655200340973       25.91816135900368       18.80073349455731
C           21.93671359950838       22.52271783385973       15.66236298978105
C           21.84582570558284       21.64736939789255       14.40440120712887
C           21.46076476398344       20.23894246679911       14.88200185777326
C           21.57911118140381       19.20843219797680       13.75785254673884
C           23.82383620744539       18.33673539592988       13.46349817890914
C           25.15152504789887       18.60519616957439       12.98008311693943
C           26.30345000899032       18.71367566464701       12.64610701593358
C           27.67659801831644       18.96625341514803       12.21831940227570
C           28.34171460929912       16.81666049826777       13.17195098617362
C           29.61708497033321       17.70431805279206       11.36694069071638
C           27.59316161481998       19.75860258640941       10.90358353781869
C           28.34652072450318       19.83863398645159       13.30274178260883
C           23.20225858885588       20.55686644002903       12.58977123101379
C           23.19067969154800       21.63833455304115       13.67012461262831
C           19.53767329309836       23.16604662373410       15.56733761816472
C           20.65384852332942       19.44402797311333       18.84153949167102
C           19.28584443359993       19.22965859026116       18.18626803171767
C           18.19748420906975       18.94866967339318       19.24157571252211
C           16.65854423552467       20.16161387979460       17.91133282338595
C           17.71011721059212       20.27707027536542       16.81424310479921
C           22.37244296380229       20.13987718737014       22.97341948567375
C           22.03888374743008       18.76233305643098       23.54340936455270
C           20.57522825043849       18.73921719076424       23.98020826625218
C           14.89555413142258       16.91728223541788       21.01483263750461
C           13.66477904051060       16.85851391961235       20.32223345208233
C           13.51541653067972       17.49038952870063       19.09447253139085
C           14.59418111181092       18.16647643231163       18.57487202078102
C           15.82697031685544       18.26845203418407       19.25459552518221
C           15.96551043269662       17.64211743900347       20.48451825759905
F           20.89283313665537       22.11056752861797       13.49556363148487
H           10.40909387015047       17.99246948709741       25.20319279432308
H           10.15384197985336       16.34322052083022       25.82326009316859
H           11.77673627409537       17.04858214955752       25.80181687924511
H           11.66130913639887       17.10191955599986       23.27374318369982
H            9.70376654175468       18.02871385867618       22.34572242496820
H            8.30255758380027       16.93524916022830       22.17537307731355
H            8.61870176449411       17.73163334438937       23.73499117536043
H           11.41504812972707       12.42977761680481       25.81521550470259
H           13.31598272896042       11.61280114941160       24.39629208445566
H           14.20953704540133       13.15176912709031       22.64924564611798
H           10.91189576192629       15.29024980460764       21.39403667768452
H           11.01588690276167       16.44104641094611       20.05102941647249
H           12.35148124778700       14.76457668017980       18.74244094820216
H           12.19783715525664       13.61467902045655       20.07401323890263
H           10.75999441376818       14.13281772044013       19.18809653995269
H           15.62087356333886       14.81407448795179       23.60628770439357
H           16.76932371519736       15.79155149901588       22.68094649052039
H           16.69673098583908       15.28443277877444       25.73840832902996
H           17.94016060955595       16.13918132790504       24.82291199548300
H           17.13541471750259       16.93641631339473       26.17747826373720
H           14.24800830087728       15.90427274823369       25.44141547840939
H           14.68807954717486       17.51770447020609       26.00688545906131
H           13.82906225598303       17.32100880459706       24.47691078854600
H           16.28613602786467       18.89991438400655       24.73516164331862
H           15.60359319769156       18.53015526843780       23.13900892883340
H           19.70788110887999       18.35667508064572       22.02422056669690
H           19.84128313759041       21.16669544996591       22.79836423659494
H           19.84411285682038       21.09041950881925       20.03580182961580
H           22.07868425941859       21.78144201918231       18.24921755387233
H           22.10216848678749       23.94403775725489       17.59568679115333
H           19.36189051377773       25.24516413173633       17.25054578572868
H           20.64737420688552       27.14879009240147       16.34432868460246
H           22.15869604396547       26.26236577302553       16.55157177085416
H           20.97963123492028       25.72510919404573       15.35781405994369
H           20.30304601441456       26.94161922128293       18.80773812074358
H           20.13338624409620       25.35800088974742       19.56372778509508
H           21.72637183756845       25.92315785509232       19.04994447672626
H           22.14902010476212       19.97325804946691       15.68865132534994
H           20.44975032218838       20.24389147259269       15.29262460663606
H           20.84138079346054       19.40985588020746       12.97710153148298
H           21.43104636026577       18.20388515186107       14.15675230141364
H           29.12692720368901       17.09741939675360       13.89033903888322
H           27.37629058744415       16.85026298552405       13.67490179432046
H           28.52468462775563       15.79183601303096       12.85092920593738
H           29.91659483148912       16.67637361784877       11.16805538344990
H           29.56081144453649       18.22936022228998       10.41922663680842
H           30.39388399800389       18.16938839696055       11.99265100264348
H           26.87992143608871       20.57421631110376       11.01865141489506
H           28.56313568779670       20.18237097932732       10.64804151986704
H           27.25484850553051       19.10452719388742       10.10106537697427
H           27.81512936118436       20.78171652577998       13.39131571352593
H           28.32347709284862       19.33895830051643       14.26789523318646
H           29.37850052450717       20.04395378548873       13.03043320914130
H           24.17483444139971       20.51552544429976       12.10211196310008
H           22.43328737060364       20.77952859502157       11.84441385652311
H           23.35208345993478       22.61969049916450       13.22256781127355
H           23.97453016080323       21.45746177560844       14.40536002077557
H           18.83801944654828       23.27476477898327       16.39282955929417
H           19.39286225668001       23.97855859976228       14.85431057242341
H           19.33812527809913       22.22169249352497       15.07316364983534
H           21.43233416989153       19.40244105804383       18.07696762149315
H           20.83254498957764       18.63073146482389       19.54609667314724
H           19.33966542233366       18.34091728369361       17.53169300260436
H           18.23980011078848       19.70769257990613       20.03825760698493
H           18.41402746456236       17.96908353901156       19.66721257319485
H           15.66462962169487       20.18507663525400       17.47315210461354
H           16.76717982368523       21.02345964133514       18.59265510682436
H           17.57064992491429       21.19048508134029       16.23794904462722
H           17.64558655560110       19.40110621850129       16.15154159294757
H           23.38332999040433       20.17983038964063       22.56835881828261
H           22.25716889024049       20.91046452781391       23.74248474558014
H           22.68660397948453       18.54470944734011       24.39214862348707
H           22.20924183959967       18.00667317967731       22.77467287179378
H           20.42230087623350       19.45497425884798       24.79226514173467
H           20.29228414516404       17.74735487597691       24.33246351556431
H           12.59003776244192       17.44692617721821       18.54228895022780
H           14.48820261499423       18.61160414310512       17.59814280756364
H           16.88531675732357       17.69430582207690       21.04213360722447
