151
 energy: -221.330296956080 gnorm: 0.009304236145 xtb: 6.7.1 (edcfbbe)
C           10.13830101579638       16.85107611535557       24.29356643218135
N           10.94183192161552       14.18175410040397       24.50405510009156
O           10.02465300365452       15.79920160367674       22.08153423251773
C           10.89380847255903       16.18184466480428       23.14627166677766
N           13.19381751002773       15.47953159535238       20.85071174296284
O           17.06687006784783       18.67223538863573       23.50217073841922
C            9.64222365551722       16.85996096911359       21.23189325502208
N           19.75851946349124       20.72855651141007       22.67865019778829
O           22.80009692741851       17.44791551801197       13.27410029158662
C           11.59250317573891       14.92049486089914       23.61728933230737
N           21.15392868054265       20.72886092432502       22.61296594305985
O           23.43699554376396       22.22593662437349       16.57913769747625
C           11.50369437736963       13.07608110806078       24.96270568130897
N           21.50964681029885       21.81183636942995       19.26897974500878
O           19.85713266103605       23.34815318729373       19.36865904314808
C           12.76326532587704       12.64762690388269       24.57715977589106
N           21.46655438929438       23.31682896071657       16.63126336153523
O           19.38700429377959       20.25497285127554       17.87805875276574
C           13.44857287481966       13.40991930118562       23.64861133079982
N           22.59705241108034       19.67667302696083       12.91675051942511
O           23.02181207155723       20.85675475225169       21.37010490700854
C           12.86200805767930       14.56629939501814       23.13743080289849
N           27.96053412568407       18.18339002518408       11.84032045787574
O           17.30617461460001       20.84662144200031       23.98889206108708
C           13.60255614045009       15.37120302886271       22.15984629598309
N           17.27130784565955       18.63785435712274       18.84162718749852
C           12.21636633622358       14.63769408804817       20.20752919728430
C           12.82655894771279       13.30125548984521       19.78519309755081
C           14.75990339537008       16.08958385761881       22.36522274445103
C           15.55261138504410       16.16613087166463       23.63169792584722
C           15.28416222118032       17.38650909434094       24.53876956462583
C           16.13225879934871       17.24905867879751       25.80791522108723
C           13.80770904869271       17.47541010486522       24.91708813190354
C           15.66735537204912       18.68533158262408       23.81959304657298
C           17.76208757703683       19.77907152324820       23.63707750170299
C           19.23584035088240       19.55003943006391       23.35898430983450
C           21.79814343647131       20.81714177857661       21.44091566092436
C           20.92868162723666       20.85883503755543       20.18401268746651
C           20.95182733893160       22.98388602344938       18.95878263062228
C           21.79136037241082       23.80624395008292       17.97080239444609
C           21.58684012485650       25.31616696911246       18.15125277218543
C           22.32246849958529       26.09916048460900       17.06865919161272
C           22.10524390283285       25.70765895216230       19.53710751264890
C           22.36918158721919       22.52822258704746       16.03816407996257
C           22.08313451048080       21.90591955613002       14.66384596977820
C           21.48709088116028       20.51393668225626       14.91302302188778
C           21.32526410260545       19.75644688178419       13.59601116669778
C           23.26030895038497       18.50741304568214       12.84493218332223
C           24.53940265556451       18.53332973579603       12.18447233938500
C           25.59920449514379       18.32352534570140       11.65221064408649
C           26.83431893350021       18.11137793595121       10.90002978040118
C           28.05449670042256       19.44441698847836       12.54936040595652
C           29.24843073780302       17.81458881606032       11.28899252817767
C           26.72095238377748       16.69708651309801       10.30612597566116
C           26.88399901101398       19.14780034944732        9.75777349219107
C           23.16100800988966       20.96191098979173       12.58200831940350
C           23.37528427138979       21.80223539465477       13.84539193652744
C           20.11771750994829       23.56254330380355       16.16729862843126
C           20.90299134190661       19.45246111727325       19.56316407909935
C           19.64057914385831       19.16287670466322       18.74619853920148
C           18.44164046990950       18.86193682885955       19.66014989722220
C           17.00334774840347       19.80962038765427       18.03381980918565
C           18.20698072579466       20.04906667021061       17.12583728965061
C           21.87517933657651       20.57135442711504       23.86835561450383
C           21.43971020467753       19.26063909643058       24.51923530839496
C           19.92541804521562       19.27982609547499       24.71184828656093
C           15.09401164625652       16.67475566170367       21.10621950392951
C           14.10383415894169       16.25891857496022       20.18639967179711
C           14.16178446950235       16.65346990329263       18.85527507442130
C           15.20380849703316       17.45767107789097       18.45909488419867
C           16.20235956498974       17.89034886759056       19.35473838496597
C           16.14263897260032       17.49246648945860       20.67988422304547
F           21.18469932907445       22.66983661250141       13.91681348927414
H            9.64586610176587       17.75495117248302       23.94709967589148
H            9.39677042896330       16.15947327022495       24.67875715048218
H           10.83209559851398       17.10894274531470       25.08652146141589
H           11.65024543579085       16.87339744093797       22.74028641262129
H            9.00414184928558       17.58143266090216       21.74743120476809
H           10.52394673990347       17.37663702195793       20.83636119760002
H            9.08618718156916       16.40330080890375       20.41757671723871
H           10.91137353505931       12.52291292324810       25.67826791247984
H           13.19161876158212       11.74661136278794       24.98567071042305
H           14.43006388986054       13.11777493835140       23.30430933509378
H           11.38045195201933       14.47219082844522       20.89101028775378
H           11.84453497080339       15.16895637545820       19.32729538096468
H           13.18433540247737       12.75695202804564       20.65557099708434
H           12.07860118392601       12.69722252605208       19.28095515101491
H           13.66159407662978       13.46747118883791       19.10971542637754
H           15.35080113126973       15.27191822423826       24.22392549670020
H           16.61222470297273       16.17214210463163       23.37038597061789
H           15.84898908002496       16.35744695106641       26.35778412034061
H           17.18577284919110       17.17881494489416       25.55274647321019
H           15.98883965317123       18.11249637337220       26.45278373850950
H           13.65596512957062       18.23117772367022       25.68216605799849
H           13.20928007996437       17.73900573115588       24.05141067854409
H           13.45885373904951       16.52014800221601       25.29929586081230
H           15.46437490371446       19.55706538778134       24.44951485217910
H           15.11562078731543       18.78664725794560       22.88087731873626
H           19.35860437462130       18.68847545006219       22.69648587912212
H           19.42546857324855       21.56511322969110       23.15982296904199
H           19.92612122476772       21.21233904372193       20.42932448592586
H           22.44091800906904       21.59722408612199       18.93670869272717
H           22.84956685096061       23.57607154981837       18.12851391657898
H           20.51772118067562       25.54118467979954       18.11134043678882
H           22.23381333027717       27.16365360760748       17.26051762921844
H           23.37634614380911       25.83521326332064       17.06704910113684
H           21.91520393194601       25.89322086375300       16.08367901323506
H           21.98895004251558       26.77608052788233       19.68971712792360
H           21.54839625572523       25.18576576618760       20.31169428160335
H           23.15768185956530       25.45244528103537       19.63740381467679
H           22.17761652537090       19.97846675862585       15.56640518656433
H           20.52870761543411       20.59660333081390       15.42491283243721
H           20.61430671477213       20.27987725448373       12.94968969385885
H           20.97580964207062       18.73943483575518       13.78145331258931
H           27.06903907350140       19.74281581904197       12.89688024016277
H           28.69937888146088       19.30401686570118       13.41633143460774
H           28.47991979033563       20.25255407054613       11.93731544942678
H           29.20514657397981       16.81642883643820       10.86524281990410
H           29.61131122438813       18.51774773326815       10.52519881782556
H           29.96896176296132       17.80509107454275       12.10530544463053
H           25.73554336598619       16.56711869435945        9.86976461739545
H           27.46029761973701       16.54255821333802        9.52905627598631
H           26.85228643733783       15.95800243650637       11.08756752733433
H           26.94009316191775       20.15962282886736       10.15467075733753
H           27.75025940473527       18.96469184595101        9.12636317916121
H           25.98499577311534       19.06339916200997        9.15203117187577
H           24.10935061622232       20.81440774093405       12.06583545321079
H           22.46432265199239       21.48240216587656       11.91817433906481
H           23.69566458686635       22.80571324367327       13.56302751854555
H           24.13818279478630       21.36100290032410       14.48535915605402
H           19.51494306525337       23.85406963412873       17.02206796759216
H           20.09459527792960       24.35540628888955       15.42201520985636
H           19.68333702351516       22.66484395551019       15.73763679006155
H           21.78224877948391       19.35459427632578       18.92540212262543
H           20.97517950908304       18.70328612988628       20.35131275016149
H           19.81569171407202       18.26500186084472       18.12993382709401
H           18.29492607560654       19.69685735578661       20.36599606245966
H           18.66444241922385       17.95182982066259       20.21510554967103
H           16.10893440932881       19.66828790285616       17.43178205235222
H           16.86470459810504       20.69811294766470       18.67320278962756
H           18.06606909373857       20.95386266746971       16.53359624204587
H           18.33978651521102       19.18251380663254       16.46105499276850
H           22.93722185360767       20.57692741935814       23.62918811725720
H           21.64211076423194       21.41990257990005       24.51984466205927
H           21.93936907324885       19.13981712040627       25.47904210200673
H           21.72229872003808       18.42808941960526       23.87198808715195
H           19.65055583484822       20.07079036331983       25.41118822500318
H           19.57588463188499       18.33096347533089       25.10893667340139
H           13.42351068855941       16.33330698045908       18.13605967941866
H           15.27349810211123       17.74291399812673       17.42112786833842
H           16.88922112430193       17.79817370084930       21.39307839372947
