151
 energy: -221.330118857560 gnorm: 0.008855236356 xtb: 6.7.1 (edcfbbe)
C           10.48366032912999       17.12402214274574       24.47174437290388
N           10.95064541462130       14.39254496972661       24.50881166550844
O           10.28531450197160       16.31506705305194       22.16510950214770
C           11.16841656257278       16.46210455134031       23.27613261011227
N           13.15604168881609       15.57180469069866       20.84524557901050
O           17.30579465027509       18.35599800546581       23.57190764225921
C           10.08392022621503       17.49788570521783       21.42643549475195
N           19.71331500074356       20.72830061236844       22.65114550676773
O           22.95780519110947       17.52621853869763       13.17275985652693
C           11.67471729106115       15.07751748403454       23.63783724525361
N           21.09421296835866       20.91474232341990       22.55752040906944
O           23.03929696779370       22.31589402147834       16.79421709061909
C           11.35596734574203       13.19165986373215       24.88525948719780
N           21.22085202026538       22.08326825629291       19.20240911447195
O           19.36686450014296       23.37799121524207       19.23454159862886
C           12.52435961095516       12.60636030688068       24.42513927422995
N           21.05954456979842       23.34825761415251       16.50137507224157
O           19.32108941674892       20.38700911893202       17.84026842711613
C           13.28313809179345       13.30957638143095       23.50678532635652
N           22.77790487367881       19.77748378945579       12.93543232596117
O           22.88462393527085       21.35646256557782       21.26984549739343
C           12.86012426485843       14.56697124333224       23.08395289638303
N           27.68020377431386       17.09073484701831       11.38955312431803
O           17.33772081589331       20.55126894229883       24.02452412962210
C           13.64725949478470       15.32628934737036       22.10686605966803
N           17.26371496874833       18.66750512479056       18.79210499828012
C           12.08040141547164       14.84973572904680       20.21385149226209
C           12.58950689892679       13.57702255001939       19.53739533267715
C           14.87315210164949       15.93214724370532       22.27536016265736
C           15.79605307601122       15.78797591817110       23.44580869206155
C           15.68289600027318       16.84218023345307       24.56634165964156
C           16.71516697082192       16.51827542436925       25.65054902263934
C           14.28640229101335       16.84233076520246       25.18626331488161
C           15.94252902630614       18.24281122801307       24.00507467892999
C           17.88164318348860       19.53313130076445       23.64970724986612
C           19.35544854979025       19.47179680036291       23.29492078092069
C           21.68268952536425       21.13984239179429       21.37253504644003
C           20.76937191826763       21.09042401065517       20.14596060123726
C           20.49971483636832       23.14422927915066       18.83249752481493
C           21.22671230866329       24.01045778479092       17.79332457778579
C           20.76322005058080       25.47363725263360       17.79179374075279
C           21.49415180848170       26.26668620504179       16.71124867174186
C           21.04604732043632       26.08327855395764       19.16499834062780
C           22.05152439404815       22.55260828696687       16.09164496976347
C           21.99781539346581       21.90683074335471       14.69989358232469
C           21.39024046553829       20.50325058457565       14.80562274938543
C           21.42354514772631       19.81124627873438       13.44226841171526
C           23.45230220933775       18.61522670858929       12.86540921764659
C           24.79440146231659       18.69518086884555       12.34803262932901
C           25.90390737259831       18.55023181575456       11.90286591978601
C           27.23525603354394       18.48688168207761       11.30284620548487
C           27.80754609199291       16.60508648780849       12.74953458914955
C           28.85542881066802       16.75603561451849       10.61324459720303
C           27.06128190212527       18.91542482056123        9.83680742122189
C           28.14763475121014       19.49942228324075       12.02604845835310
C           23.37131962662883       21.08151474698845       12.76359826796309
C           23.40672269481949       21.82633192678732       14.10161159710450
C           19.73567406005809       23.43762363621799       15.91773905946857
C           20.85081022590709       19.67742275272548       19.54406530509819
C           19.62470490584549       19.30473156380340       18.70339188333253
C           18.43699290317169       18.91102682049477       19.60411786757285
C           16.96320352869200       19.84545210203222       17.99790170067986
C           18.15397604202674       20.12860300227140       17.08688958390665
C           21.86416376670963       20.80152448233292       23.78686156754029
C           21.61858184035281       19.41781704822182       24.38488192074213
C           20.12139759146304       19.22768556689620       24.61330909001112
C           15.15537126471431       16.60641934428000       21.04595092966822
C           14.07538482018487       16.33309475912426       20.17623288340542
C           14.07208707797985       16.81441366227681       18.87299708284809
C           15.13430280284940       17.58125211908446       18.46021266026839
C           16.20458263184851       17.91368780663331       19.31824312123674
C           16.21099861376881       17.41383046971217       20.61177637598105
F           21.23087770813990       22.68484249838084       13.82394860781298
H            9.59075012727965       16.56059012443068       24.72421524605731
H           11.15623772885908       17.12283849576754       25.32433214318241
H           10.21463242794532       18.15000601629442       24.23499857989324
H           12.02599938070970       17.07493836830865       22.94752686958677
H            9.53863501407817       18.25099906644984       22.00343114323319
H           11.04188775714526       17.91958176079124       21.09875294221671
H            9.49304252725513       17.21208939819270       20.55863072539982
H           10.71352971105763       12.68752166230369       25.59346474224840
H           12.82526965591027       11.63074570334998       24.77041181923243
H           14.19567422941610       12.89521959032773       23.10452607403388
H           11.33109849542227       14.60300954508295       20.97038423507512
H           11.61431493549294       15.50825387252380       19.47597815852200
H           13.34831263899304       13.81855839303356       18.79191299212552
H           13.02795098957881       12.90514836197340       20.27649095549094
H           11.76296377899972       13.06825329065962       19.04768498405269
H           15.63096255786968       14.81012116613166       23.90250976090396
H           16.81915405067542       15.81650821924415       23.06522771936428
H           16.49353013743126       15.55444644986227       26.09997188461033
H           17.71510693722358       16.48226964494079       25.22655256495360
H           16.69579462853213       17.27430086168901       26.43200447226760
H           14.25085263589697       17.51605842634369       26.03841905392294
H           13.54834021074968       17.16702149790152       24.46064415026748
H           14.02187289349919       15.84358916622020       25.52203108200751
H           15.75733477495509       19.00895057398313       24.76487038170846
H           15.29718687684139       18.43877132146645       23.14433874186086
H           19.54047713792621       18.65060726051439       22.59526025373337
H           19.28520325676780       21.49527263139999       23.17378226313643
H           19.74745195237418       21.35013854330646       20.42656195929463
H           22.15275633922569       21.95805999611227       18.82491395424647
H           22.29739080003432       23.98632082789705       18.01873843889017
H           19.68493973304795       25.50857175820590       17.62041474806047
H           21.32676254715650       25.84820870896709       15.72207140288467
H           21.14755967745165       27.29715679683869       16.71271391614916
H           22.56570951975156       26.26141737904088       16.90659169032647
H           20.73517794377202       27.12436445737378       19.17945989302082
H           20.49916351020287       25.55015785394611       19.93841577124086
H           22.10838086549155       26.03491734623072       19.39304141314285
H           21.99019226770817       19.94231887425260       15.52346694405452
H           20.36874208935584       20.54997145626115       15.17965744368856
H           20.79893450027156       20.36295828533641       12.73155129854636
H           21.06776896866425       18.78202641372729       13.52288314181752
H           28.72022370443701       16.95674005463345       13.25139924934797
H           26.94672718999872       16.91756851971983       13.33164200397013
H           27.83110736620459       15.51814754982401       12.72633732667160
H           28.67259352400233       16.93739504720470        9.55806186280800
H           29.75743318472203       17.30234922036834       10.92546404982339
H           29.04477742643832       15.69126257851407       10.74290163748993
H           26.54648699183331       19.87219840697368        9.80341270045045
H           28.02610852901316       19.02508814006639        9.34999774094405
H           26.46650938016700       18.17737128828619        9.30490158538938
H           29.14868693121097       19.46372444211411       11.60301114810797
H           27.75171328622401       20.50298559670875       11.89986325688791
H           28.20128543806274       19.28105930426543       13.08979359608310
H           24.38013923311133       20.97208791474271       12.36697645561727
H           22.75905924553500       21.64762410889374       12.05514716925477
H           23.79113356150970       22.83619998607167       13.95213900477227
H           24.04920924831901       21.31337737221270       14.81856656246816
H           19.63894092802486       24.33827378226555       15.31179936193115
H           19.52151163117333       22.57299318934612       15.29977393396077
H           19.01107183763629       23.46750126102307       16.73053174339140
H           21.74872299984401       19.63199691881654       18.92731985016254
H           20.95296008197969       18.94562332300773       20.34436219047488
H           19.86968994700745       18.42464335790551       18.08002798326155
H           18.25819245949580       19.70052591177253       20.34989804942783
H           18.71315748613497       17.98709387143111       20.11199954388516
H           16.07375739101545       19.69116990744194       17.39262244889531
H           16.80233572529028       20.72397535811897       18.64763786196512
H           17.97332597359503       21.02529917024390       16.49538709174081
H           18.32235609029339       19.26606204369447       16.42585236024986
H           22.91146469337965       20.95297250484465       23.52545659641282
H           21.54549329154975       21.58487596208617       24.48268372573307
H           22.15720891513899       19.31951809161764       25.32519412236628
H           21.98860189400088       18.66037434857757       23.69243910070724
H           19.76883831462920       19.94187875552377       25.36254312344267
H           19.90900827579937       18.22029159957243       24.96839891039799
H           13.26659501448456       16.58939220889028       18.19051476547061
H           15.15383684764506       17.92216892523032       17.43740411775581
H           17.00917785271832       17.64247754212071       21.29734636108835
