151
 energy: -221.329599804743 gnorm: 0.008042034014 xtb: 6.7.1 (edcfbbe)
C           10.98080684242747       16.61100097657249       25.41882039021801
N           11.15879181956853       13.97816095132150       24.50389791842272
O           10.20698482879194       16.53900941511418       23.09606924050464
C           11.32788169442268       16.33025700229099       23.95806892664623
N           12.79624962372064       16.09189257224556       20.93899510770738
O           17.57236368480567       18.13627523409810       23.30328705769400
C            9.99927652292456       17.88614633529543       22.74061866463767
N           19.95125404023133       20.52419950228871       22.32384572248536
O           23.31211038797083       17.07424020295305       14.06234817160541
C           11.77967657640198       14.89445844012985       23.77507967881945
N           21.32199505049328       20.65067057265771       22.07282286332663
O           22.99484900086082       22.34694980215792       16.42824151275665
C           11.51633199043281       12.71062818484560       24.39166673108861
N           21.15358629837116       22.05482355468874       18.81006544917262
O           19.33941006862663       23.40009192705187       18.96665087332200
C           12.53417985132686       12.27819824568920       23.55671763299376
N           20.94146056413686       23.22521387015612       16.15284617555018
O           18.97971280433626       20.61109926487000       17.55904779382026
C           13.18326541737697       13.22664812989017       22.78685740746290
N           22.77624851861044       19.13273905900418       13.27636307647886
O           22.97374317952212       21.04509629419803       20.59629192187314
C           12.80354591909932       14.56499469022799       22.87604010668460
N           28.30695711774291       17.52174875266394       12.41785601768122
O           17.71777936452543       20.28072150935125       23.93877374671257
C           13.46147797426294       15.55957769756481       22.01923700663480
N           16.85448525852039       19.14259861317325       18.74639496426036
C           11.52949065358828       15.64725267346946       20.41351693725834
C           11.69743206132198       14.46930649672885       19.45479829549075
C           14.74095557765793       16.06231573777323       22.09145372581781
C           15.82823474712547       15.66157622333763       23.04091419888618
C           16.02103968861129       16.54348550916544       24.29369956067838
C           17.21591771055553       16.01260793049440       25.09139696095483
C           14.77277805027678       16.50839635729966       25.17403987215940
C           16.27329637776248       18.00399907566066       23.90128003189657
C           18.18706110316425       19.29167485664760       23.41693421600845
C           19.61247420162954       19.22821831492611       22.89953918355651
C           21.77724442472505       20.92173205987873       20.84102064440762
C           20.72455149856242       21.04354066740547       19.74201931514127
C           20.43438270847303       23.13694509952851       18.49030944886781
C           21.11752661330240       23.97507595767877       17.39804080013991
C           20.62732983897940       25.42499371551271       17.31552098581064
C           21.37405572620831       26.16540041658082       16.20625254186272
C           20.86789061267344       26.11169097693646       18.65931892391122
C           21.94828833075517       22.43547891461283       15.77459059443776
C           21.84074085876449       21.54105224040884       14.53397190565815
C           21.40564015886858       20.14962350322391       15.01446354382471
C           21.46129120522059       19.12943923087652       13.87566250703204
C           23.63025044937203       18.11051511995852       13.47864031837700
C           24.94997565682097       18.30093394428805       12.93802121049400
C           26.08837701588052       18.36925606265346       12.55026948117124
C           27.41848606500682       18.61065037444354       11.99984447492928
C           28.32925726654816       17.29189512195892       13.84777521944633
C           29.65664584310223       17.59858764448476       11.89572225672360
C           27.25634299025611       18.60323933133243       10.46790751506671
C           27.86079763959196       20.01539396089100       12.46664547325660
C           23.15284601381064       20.41020743628661       12.71791867161074
C           23.19275984009775       21.47123861685844       13.81764766957590
C           19.60906021653351       23.23845102996521       15.58251848669193
C           20.59940084305928       19.67127587842106       19.05250838630997
C           19.25241191113989       19.46878955824757       18.35003745638370
C           18.15275159478744       19.15944552150688       19.38402409590708
C           16.62382031782221       20.40557936615456       18.07550171734842
C           17.68578709125027       20.55419762621395       16.99202236380387
C           22.22387049128157       20.40099821412470       23.18634899609719
C           21.97366705613188       18.99166096267254       23.72019244443058
C           20.50267329986566       18.85701021846609       24.10537677988519
C           14.88354078591264       16.94895514375949       20.98005146419281
C           13.65893665213686       16.92183169189864       20.27694681691347
C           13.50011064469917       17.64270400851258       19.10210483180986
C           14.56691006675833       18.37309294457814       18.63661083247078
C           15.79622242158085       18.44138893684150       19.32803180792352
C           15.94229819554951       17.72704760249621       20.50845662800849
F           20.91739296359793       22.02325426815577       13.60317682742547
H           10.13332721870079       15.99505879016336       25.70189339572435
H           11.82743811545464       16.36169946665737       26.05081530039869
H           10.73143939957388       17.66006325920341       25.55804225442756
H           12.13940625007356       16.99713252307857       23.62280262261548
H            9.14971050197076       17.89388544228323       22.05666245188000
H            9.77207504839548       18.51205380845426       23.61022570793069
H           10.88272122004922       18.29337041602225       22.23108849688012
H           10.95954167198596       12.01901958357272       25.00827453476990
H           12.80510874412695       11.23556372505367       23.50469823824956
H           13.97408441167778       12.94915759275231       22.10570341970159
H           10.87999564610154       15.36514991328527       21.24547739509176
H           11.07070685696694       16.48946693146013       19.89200272315854
H           12.34377313407055       14.74168586230415       18.62484320898016
H           12.13649770973008       13.62022902252148       19.97384599781886
H           10.72751503146261       14.17533850696929       19.06743168760646
H           15.63356349779541       14.64367513039192       23.38640118586597
H           16.76807822132399       15.65846510491787       22.48473684964116
H           16.99297158606601       15.02350256751028       25.47931812680306
H           18.10101035591594       15.94940111557843       24.46294888748949
H           17.43379719303947       16.67081718017997       25.92966813920707
H           14.46624073315919       15.47980672591742       25.35021780650912
H           14.96757555634048       16.98261898094911       26.13335743366360
H           13.95533507490151       17.03352852194812       24.69057000922499
H           16.23469751154379       18.65822499281350       24.77792200652975
H           15.52620396117009       18.34431210899706       23.17885421408605
H           19.69792485440825       18.46644956619611       22.11874386701533
H           19.64108332300607       21.25747520287014       22.96547793336077
H           19.77037036153886       21.37056723221023       20.15724015213182
H           22.07377696232782       21.93158417004756       18.40481252488375
H           22.19438970470274       23.98597921518783       17.59879420273055
H           19.55423681766686       25.43875928718419       17.11187989636495
H           21.01226794497956       27.18706857688615       16.13354374907927
H           22.43912167455280       26.19043351150868       16.42924783395108
H           21.23633903174525       25.68041336882299       15.24358097291067
H           20.57133951357173       27.15465185258670       18.60222311372401
H           20.28609103015462       25.63055050568470       19.44029682652266
H           21.92078397991387       26.06365695944257       18.92977516003914
H           22.09775196231071       19.85414590284988       15.80519028662749
H           20.40170282194545       20.19636259177089       15.43683595059388
H           20.72369271803861       19.38313834619278       13.10856934622336
H           21.26411779239498       18.12568823405886       14.25628486788073
H           28.88335239623819       18.06544843799911       14.40290677021969
H           27.31100398249345       17.24576624244574       14.22936580245168
H           28.81222332384191       16.33227581986140       14.03507674725442
H           29.63627708137881       17.74715906558800       10.82125838517921
H           30.25665388610086       18.39491544384961       12.36207944556865
H           30.14544661076015       16.64592524473456       12.09848679823212
H           26.36183783799818       19.15703493027081       10.19444077378050
H           28.10888313653351       19.07233472873872        9.98631362201983
H           27.15508726952931       17.58057839057290       10.11704978538220
H           27.13800012082906       20.75621580065147       12.13708944310894
H           27.92537282565008       20.05553061613939       13.55193842271406
H           28.83048090019458       20.25951655404346       12.04109966262390
H           24.12794189589748       20.32458522901763       12.24066855781875
H           22.40628601978239       20.69016978958956       11.96804425188199
H           23.41605214403297       22.44747787322336       13.38724902758849
H           23.95640638516212       21.23280675753454       14.55769265109109
H           19.53026224239213       23.98580601363558       14.79136594023587
H           19.34958473072176       22.26597969906921       15.17774759522145
H           18.90716621691447       23.47428795823775       16.37869828701577
H           21.41256787558200       19.58664443784781       18.33093186473176
H           20.71980787134125       18.88125789716599       19.79227791147987
H           19.32118753771233       18.59511352912391       17.67897879193235
H           18.18775125160250       19.89611658125311       20.20263616083339
H           18.37014160261556       18.17002925928606       19.78367154846271
H           15.63650727708400       20.43807409985403       17.62471769445098
H           16.72000107696078       21.24736331744677       18.77982463753395
H           17.55035418759693       21.48838544056154       16.44935340332987
H           17.62152203768888       19.70160473582726       16.29950349728721
H           23.23988455646122       20.51874497350323       22.81002007033110
H           22.03531974715325       21.14457505062679       23.96749720582962
H           22.60456378777348       18.81328892884525       24.58902703177747
H           22.22684753394610       18.26356418469064       22.94833315423744
H           20.27470482919849       19.53827578397090       24.93024030894324
H           20.27368275964504       17.84011514532481       24.42318894503821
H           12.57718527858385       17.62261209438051       18.54377101523778
H           14.45532643166565       18.88816508572911       17.69688020095422
H           16.86002132576890       17.75339571901751       21.07045123141521
