151
 energy: -221.321376236245 gnorm: 0.008892965973 xtb: 6.7.1 (edcfbbe)
C            9.93584624355834       16.86567608245602       23.46036084864749
N           10.82987333322128       14.34991365959010       24.34141705173531
O           10.05781707056357       15.22055603838804       21.63036555811676
C           10.81145801018801       15.97806892301234       22.57502822233939
N           13.67557133900057       15.05479011016549       20.90735888170663
O           16.78574488317690       19.23370441378735       23.32799307926411
C            9.33366966336991       15.99448568124591       20.69636125485779
N           19.55279079378759       21.51125108761236       22.94957247775730
O           22.88305413824280       17.58736535119685       13.26494121365726
C           11.55944641016491       14.96768871731819       23.42291122487950
N           20.93474912619958       21.31383129107624       22.99831943376498
O           23.88261354615597       22.66743600945992       17.12949681636528
C           11.39494633300740       13.45670275682336       25.13229592612888
N           21.67374910813273       21.73639724936612       19.72016236016083
O           20.14038052561682       23.33004302606955       20.15706610243904
C           12.74119261910847       13.13174264008764       25.06461230944852
N           21.70926883968736       23.24241594814307       17.26346080622622
O           19.97363626079762       19.76138514851246       18.13312181204159
C           13.50955332881732       13.77028535192204       24.10993406340271
N           22.94787626467799       19.84655383338702       13.41198982177425
O           22.92071731251651       20.70883828409118       22.13501372368097
C           12.92520937729026       14.70443396248151       23.25306086839915
N           26.93699557195225       17.35166577942128        9.97524051394659
O           16.81665479605564       21.35177885391678       22.58541741482817
C           13.78950334393900       15.33797825848102       22.24884718784713
N           18.03261684542726       17.84826394079348       18.92998179933941
C           12.78148268393117       14.08446026897088       20.32448189365870
C           13.34346920236487       12.66739779983135       20.43252686615079
C           14.87386303410385       16.15985399283004       22.47149573447467
C           15.35720467059633       16.68227885696283       23.78680014116497
C           14.83645459854280       18.08253548111982       24.18552097571250
C           15.33154798972277       18.40251157951655       25.59927249417305
C           13.31134035910164       18.12000004552040       24.15481027147161
C           15.35920340194689       19.14821943767648       23.21267482972734
C           17.37894384917818       20.37513886350729       23.03356172092363
C           18.86872290785109       20.27927552582124       23.30432650666030
C           21.71523012777967       20.90271643762313       21.98861722938909
C           21.08164158199672       20.74771915953985       20.59465035108510
C           21.16346041865738       22.96878149588691       19.58990575423643
C           21.94349437340251       23.82439635245055       18.58559433274598
C           21.58956738964986       25.31708277814410       18.67121471952159
C           22.14899780630766       26.06950750812312       17.46649920865694
C           22.16392421837557       25.88323939234554       19.96807694629191
C           22.75352288080060       22.68098344584327       16.63753425187704
C           22.54403713826616       21.98906456492828       15.28214696571757
C           21.94199267109831       20.60009698874363       15.50662429708751
C           21.71378881897871       19.91622214051631       14.16263786022128
C           23.41319119735229       18.66017135075484       12.97917434169357
C           24.54771109103367       18.72262321730982       12.09642406215126
C           25.39269991566018       18.63079154473010       11.24372056601243
C           26.36446816199519       18.68976632770773       10.15556878521092
C           27.54546707070691       16.80444948742699       11.16997694888154
C           27.81588580968790       17.20257363098262        8.83602623522363
C           25.54809730562438       19.09105613016822        8.91309408216702
C           27.39406606540943       19.79376328557088       10.47289457524646
C           23.58991701139292       21.12006337559473       13.17982211156762
C           23.85333911638574       21.84734000190794       14.50337281350583
C           20.30874842846221       23.09747390398700       16.91359480623928
C           21.34229358388092       19.32814481930698       20.07712424951988
C           20.25875619893097       18.79570662671391       19.13325786556832
C           18.97572796013642       18.39909115974022       19.88101611811531
C           17.73112788435780       18.83991598415888       17.91155289346737
C           19.02517494717216       19.24894329179877       17.21362868701401
C           21.36399364706613       21.17932158918120       24.38284262861986
C           20.68569529611375       19.93877200900796       24.97095018338628
C           19.17116660094996       20.04182215671246       24.79274941812899
C           15.47027306306419       16.39060828318232       21.19667360564992
C           14.70568793700805       15.66796274478236       20.25114093070048
C           15.06563097572553       15.65342802598263       18.90717825706430
C           16.16288040909814       16.38485544377888       18.52281701385625
C           16.91976965749578       17.14133560403043       19.44031796228516
C           16.58431020451584       17.12565945817511       20.78103412448219
F           21.68467174699049       22.75468598997942       14.47890996734861
H           10.54312265859304       17.30490323860127       24.24490602175879
H            9.48530140173461       17.66606682075160       22.88039358909926
H            9.15948107957295       16.25644977347357       23.91369876809108
H           11.53601664680370       16.59902633701349       22.02061572642262
H            9.97724441471484       16.75362288542954       20.23672438093959
H            8.98832201440313       15.29621025401654       19.93732984018715
H            8.47164754851347       16.48106052433723       21.15953600186764
H           10.73642711201746       12.99111893389358       25.85173239217994
H           13.16937648215844       12.40115205972543       25.73126978449708
H           14.56125143772845       13.54474725895175       24.00641377948874
H           11.81440410699165       14.13918515098710       20.83072013420627
H           12.63799090126870       14.35104708110296       19.27506007642230
H           13.44696067616944       12.38368867130261       21.47686709414218
H           12.66859770882701       11.96673179438747       19.94860788282452
H           14.31871746208120       12.60742566308660       19.95401595482885
H           15.05970221144724       15.98644040554468       24.57318833386692
H           16.44734561919303       16.72699615168420       23.76315112273109
H           14.90067965323479       17.70815531244105       26.31540773483832
H           16.41487397188186       18.32349289246582       25.64734248866141
H           15.04679093877551       19.41247879216917       25.88179986941690
H           12.94479224052515       19.07562534479505       24.52112517777083
H           12.94743480710736       17.97635437868217       23.14154129199748
H           12.91120279712141       17.32735710733956       24.78173130492078
H           14.93449613665904       20.13181562298078       23.43623030222251
H           15.10751935355448       18.88636824078346       22.18092323670205
H           19.24083407179572       19.41516022461803       22.72373020145865
H           19.23893426254601       21.96731551282608       22.09804345448536
H           20.01096213444503       20.96158878564844       20.61317402878587
H           22.58144849573027       21.52530894663773       19.33095734476529
H           23.01498708856403       23.71055302522637       18.78379046850030
H           20.50126964183113       25.42586491945947       18.70802398195478
H           23.22143983472998       25.89771729396640       17.38632508843376
H           21.67950932499954       25.74237140999095       16.54248423030418
H           21.97738016939705       27.13657340786267       17.58400057493903
H           21.76822225615378       25.34538954262689       20.82659718136478
H           23.24883454272308       25.80023323051194       19.97168511530926
H           21.89694952522614       26.93190963243168       20.06681750706436
H           22.65143038757394       20.02536482769239       16.10283475143966
H           21.00751796986820       20.66174400037769       16.05553546352278
H           20.98076099819772       20.48664626985357       13.58188092512798
H           21.34948984400830       18.89697412489814       14.30254018533585
H           26.88262363262611       16.95410250908369       12.01931998542444
H           27.68360779023269       15.73342310156876       11.02441214593660
H           28.52813244291503       17.24516315521679       11.39936495898418
H           28.05817527909947       16.14522029662096        8.73717292502616
H           27.31147962581580       17.51853769427721        7.92839590733513
H           28.76068324292461       17.75749702485427        8.93878830739459
H           24.89398740586152       19.92189946662677        9.16394509115013
H           26.20197845880679       19.40082187085581        8.10369540523374
H           24.93775031488236       18.25212996136037        8.59032342643360
H           27.95647153883469       19.55549011035736       11.37385476402891
H           28.08411485108332       19.90234714222541        9.63955814640849
H           26.88320186549950       20.74039628098101       10.62427948435411
H           24.52730487864855       20.95398815901524       12.65001098999487
H           22.93275017510841       21.74125559632839       12.56009606457503
H           24.26546654064189       22.83588530065832       14.30122686939530
H           24.56413600428320       21.29948728535258       15.12011690857501
H           19.90419412237208       22.18969993452990       17.36832450305116
H           19.76499720812817       23.94762580782977       17.31744813095721
H           20.15774089599546       23.07232789997770       15.84210208010690
H           22.30773462735709       19.32455544115520       19.56795311374140
H           21.42150495037036       18.64219865391443       20.92298901583498
H           20.64341119540091       17.88669505310303       18.63976102905006
H           18.56077690537723       19.28868815603019       20.38950605457898
H           19.22018258988836       17.63406896955406       20.61879972444558
H           17.04119404947895       18.42539094189836       17.17910502502043
H           17.26902062602908       19.73584135983150       18.36458436247589
H           18.82486567029167       20.04597577645268       16.49574860158057
H           19.45326990176869       18.38017368489320       16.69405354300585
H           22.45001578568049       21.09171174167406       24.39402245837721
H           21.05059593954504       22.07760091554232       24.91497345695084
H           20.93834110486789       19.84629059872585       26.02406140718303
H           21.05105530401372       19.05670160758965       24.44560015030735
H           18.78693890295532       20.89148190400913       25.35404539551954
H           18.68010848467671       19.13343911249950       25.13307813631902
H           14.51777658153612       15.07536027340517       18.17974228191735
H           16.47563310911504       16.36734737039038       17.48978886961648
H           17.16166957553054       17.66601803366924       21.51294713003839
