151
 energy: -221.330273135688 gnorm: 0.005986753526 xtb: 6.7.1 (edcfbbe)
C           10.18163362037386       17.48258634018790       24.10144520794870
N           10.63958801624433       14.76873475080500       24.68332798138878
O            9.79771014301964       16.04389668349774       22.14580607388787
C           10.77772486328229       16.53620062653755       23.05622914270225
N           13.10841008118073       15.44792122434577       21.00854169425193
O           17.08553779838104       18.66546470846883       23.53653655180363
C            9.25117562007572       17.01575530209395       21.27834508505387
N           19.70473794192101       20.74413828930316       22.73186594254671
O           23.39602974823577       17.11081003307823       12.89687298567176
C           11.37676334673181       15.31280920044636       23.72596255545200
N           21.09983270430887       20.82002905879282       22.70100626199108
O           23.21722142877852       21.59356090265395       16.73785884298254
C           11.08543961944951       13.70173763575691       25.32107294208834
N           21.47337054780353       21.56189603762003       19.29882052288976
O           19.87614694343645       23.15472223722633       19.47523501351953
C           12.30444069235055       13.10432358206942       25.04019735296351
N           21.32876192603663       22.81226083978540       16.62059475877101
O           19.50266821978356       19.89301451363638       17.97163237891006
C           13.08039752363000       13.66325049829035       24.04207159458944
N           22.82483287843798       19.30537733504168       12.83924632627096
O           22.99851712429867       20.76204112840994       21.49683116587742
C           12.62619212248987       14.79085658700832       23.35798796611522
N           28.25059939776641       18.39576160670165       11.19759255451936
O           17.22765224866274       20.84270872954443       24.06236397654222
C           13.48132640490807       15.39848931928801       22.33299354651061
N           17.42001059004201       18.19396173455329       18.88448910338619
C           12.05555874936235       14.66623951934302       20.40991698058368
C           12.56191301249094       13.28091734382854       20.00964255377875
C           14.70573345027064       16.00649368209381       22.50855532857938
C           15.50828253536196       16.10721532145091       23.76807179773630
C           15.29946806293809       17.38853142195852       24.60404966508908
C           16.18297092827967       17.31955372824077       25.85315160544708
C           13.83582768048716       17.52277067785381       25.01928188053158
C           15.66863389104950       18.63078822868087       23.78291998592061
C           17.73248276949824       19.79095352503429       23.73074465918025
C           19.23184075463065       19.62673960792171       23.54268910397977
C           21.77306529367622       20.73737153586453       21.54276635018748
C           20.92720266575028       20.64127764701094       20.26796865138988
C           20.91788004294848       22.73496529612600       18.98663098843778
C           21.69108068963491       23.46595586291440       17.87941857469992
C           21.45966478075539       24.98235617841365       17.85379918009391
C           22.22429072449891       25.61537986697160       16.69331636091207
C           21.92975040964240       25.58066419389928       19.18009320391013
C           22.19660971090739       21.92487953471444       16.12507525704887
C           21.99571519996983       21.28887763271041       14.74472871841207
C           21.63669544772169       19.80912870237727       14.91857211304196
C           21.58936271278547       19.10328017382165       13.56177872470323
C           23.65509593610999       18.27592467459256       12.58781233131991
C           24.86810818864378       18.61287300660290       11.88626576102815
C           25.91273874100079       18.75787443262461       11.30443324710930
C           27.11835955829184       19.05102485312190       10.53104294550764
C           28.46987405792618       18.85824562330664       12.55376846153500
C           29.49184976179503       18.38728092419345       10.45072397635855
C           26.89173956191621       18.44920154165455        9.13446016525432
C           27.24840037717896       20.58590790550914       10.41394375036878
C           23.14683691512806       20.69229122919601       12.60118246835899
C           23.28950238721252       21.42911216356889       13.93374509390244
C           19.97477276678326       23.03741941014336       16.15674741741479
C           20.98175611351560       19.20247331155606       19.73647994672769
C           19.77599845046723       18.82674368531185       18.86657997344913
C           18.55705685217999       18.47165343078740       19.73686332055344
C           17.14020436741002       19.35138638654666       18.05514822472713
C           18.36252005991192       19.61628583255662       17.18187796942475
C           21.78552070121028       20.87369266695762       23.98341554565570
C           21.39611497417473       19.64887201972804       24.80947634219301
C           19.87564804085351       19.59427927993181       24.94297318434619
C           15.11129726205254       16.46704196447541       21.21899514805871
C           14.10243018440653       16.07584897707489       20.30971157880188
C           14.22307110265238       16.35233903861807       18.95223107470638
C           15.32880802160437       17.04983844067957       18.52838608323154
C           16.32385610612183       17.49765757223672       19.42237915105066
C           16.22164395116604       17.18427429247541       20.76651671217941
F           20.98935146993892       21.91561011975904       14.00679281945624
H           10.91695030197825       17.68103553922334       24.87407622482842
H            9.88797989810004       18.42424782798711       23.64554831283384
H            9.31705777416690       17.00607100139630       24.55185068308552
H           11.56015052220663       17.06024840602142       22.48161779673540
H           10.04047498776120       17.51310059954109       20.70333377884264
H            8.59033714015461       16.47099942095698       20.60923922651688
H            8.67266942007394       17.76536581482920       21.82384614473332
H           10.43139542744371       13.31922393814834       26.09178019101625
H           12.63052243551095       12.23230486793048       25.58292951475755
H           14.03392897249420       13.23146817332928       23.77419605120532
H           11.23224952833697       14.57650805844209       21.12068547241710
H           11.69197734021991       15.19956270316858       19.52887029010878
H           12.88857847567731       12.73152278740932       20.88963062804552
H           11.76925175389611       12.72121382336317       19.52311847912743
H           13.40261694413114       13.37212572324958       19.32596941303832
H           15.27233244923191       15.25722653398415       24.41074786035060
H           16.56457039543631       16.04895520327264       23.49810691409203
H           15.87095394283451       16.49536306571227       26.48863512038530
H           17.22424587054848       17.16929242316800       25.57900372206572
H           16.10320494304370       18.24264752689067       26.42300983203109
H           13.69678111387006       18.39649198048526       25.65020857433888
H           13.20584722727286       17.62362397979258       24.14156654678758
H           13.51987697112541       16.64235893367208       25.57210217415693
H           15.39010442602943       19.54876458317286       24.30989886437599
H           15.16889286532419       18.60747433158338       22.81052838461229
H           19.44139348880496       18.69721561725255       23.00507411387434
H           19.30883734557827       21.61177338766488       23.10006198833008
H           19.90548124602557       20.96088664264820       20.48070659678783
H           22.35081870504824       21.30203447459674       18.86368974215663
H           22.76080623868203       23.28118615678271       18.02449829021937
H           20.39154484105959       25.18469668814151       17.75175090309141
H           22.03923969852427       26.68534483443443       16.66784984401281
H           23.29265905401579       25.45272359939405       16.81862734165439
H           21.92337495763843       25.19156131951021       15.73915154554518
H           21.82975570728433       26.66199654550700       19.15225008099454
H           21.33171885762673       25.19782437342215       20.00265110660096
H           22.97288969618424       25.33158654452715       19.36390150774343
H           22.40203732943455       19.36009240967367       15.55274379833092
H           20.67432164261440       19.72060266658054       15.42269591327742
H           20.76497822282265       19.50849526962149       12.96654641239650
H           21.44917485561979       18.02941192691745       13.69576435627755
H           27.52090718196770       18.88710777231136       13.08629803017767
H           29.12568324243599       18.14833160149130       13.05682794168818
H           28.93930941671947       19.85223645717529       12.60242333978008
H           29.35671915605045       17.87343186043756        9.50300267191751
H           29.89914907511341       19.39281471589402       10.26340770243385
H           30.22410891060143       17.83136903727162       11.03531538438402
H           25.90560951662268       18.73168784814736        8.77466176948587
H           27.63418344981214       18.81905189102228        8.43366693132620
H           26.94262679747927       17.36475388166027        9.18561457036337
H           27.26990859598061       21.04918614102893       11.39722740289236
H           28.15875857855979       20.84087532038468        9.88151933295656
H           26.40173649972203       20.98200677639531        9.86311412672105
H           24.07244657104536       20.75695969921135       12.03087880688537
H           22.33346845071947       21.14431337434862       12.02446541198468
H           23.49565232137042       22.48309319159630       13.75723904154260
H           24.10287446049916       21.00774330439958       14.52334148782152
H           19.37012104809199       23.32966349346757       17.01134797230256
H           19.93947270503350       23.82202548211438       15.40093852089771
H           19.55353195763537       22.12668777400107       15.74140820594640
H           21.90103009104670       19.09715127510353       19.15902842197877
H           21.02930394945188       18.50667662112916       20.57371899204851
H           20.02869431967787       17.93305664685098       18.27083602018663
H           18.35437096976459       19.30128103176026       20.43493691322368
H           18.80105817383434       17.57219561078667       20.30283626971881
H           16.26762210996633       19.17449608362927       17.42965352927697
H           16.95372884350807       20.24237594149771       18.68133366833350
H           18.20418674713862       20.49685523343345       16.55822434101260
H           18.55380063940586       18.73528798000367       16.55030280682610
H           22.85464806772710       20.89810985517713       23.77657167604518
H           21.49091855942925       21.79313240152010       24.49861672846439
H           21.85748051931170       19.70928769433235       25.79341260091521
H           21.75839133556731       18.74967293559283       24.30897243304391
H           19.51921645735497       20.45928693265850       25.50484357077623
H           19.56649119526999       18.69061350778307       25.46608497659991
H           13.47944666911267       16.02724952805435       18.24102171781537
H           15.44700572594781       17.24723782908179       17.47486659001489
H           16.97119670323378       17.49638419625310       21.47367244540932
