151
 energy: -221.329710523879 gnorm: 0.008488381564 xtb: 6.7.1 (edcfbbe)
C           11.24833701774347       16.70329299224679       25.43929948412010
N           11.43511148005294       14.01568212172482       24.62379421345406
O           10.09603991335459       16.28513129749101       23.30682814573035
C           11.36249312187988       16.32508842991478       23.96194118869738
N           12.87065819179162       16.19518999615759       20.96339114774438
O           17.86178771381943       17.96561026595152       23.15721851812323
C            9.42793998111332       17.52661531496298       23.22639599018672
N           20.22470363727460       20.30104303927646       22.01847529831178
O           22.93479247967731       17.65320270917878       13.72260459632929
C           11.95060294431735       14.93367041211078       23.81843664369061
N           21.57552895425763       20.39674696071741       21.67772981859107
O           22.85826616404524       22.74931196707027       16.24612254830783
C           11.88924985579806       12.77770535686014       24.57501254235287
N           21.11688807124424       21.99533251735624       18.56741586880656
O           19.16244536848389       23.09895389256299       18.85185872291152
C           12.89938595730109       12.37565178112299       23.71445103246466
N           20.74648790710657       23.48865935426187       16.05111190110496
O           19.01217324877612       20.50838497557179       17.22001671225861
C           13.43905943899389       13.32423833098308       22.86679641274288
N           22.66574231932119       19.73680490859084       12.86656586278974
O           23.12226029237517       20.82767693890184       20.10003373547508
C           12.96772308823218       14.63769480532746       22.90051760896608
N           27.84469251621853       17.13624195821673       13.01063183986323
O           18.02270507139599       20.14182681660158       23.63387682827210
C           13.57616483676387       15.61723745342730       21.99323384185793
N           16.92886165068905       19.04134677209390       18.49455022976425
C           11.54113801440596       15.84492166196460       20.53300957076560
C           11.55509831950330       14.68475126870367       19.54057608569242
C           14.88790238298022       16.04229274225693       21.97179293848781
C           15.99549748649422       15.61067718438464       22.88126217839308
C           16.20684716100663       16.47325382660593       24.14472312103393
C           17.34339964517410       15.86543186258237       24.96994617689069
C           14.93052986337717       16.52072775481059       24.98230650218380
C           16.55755709684569       17.91338430855951       23.75750377097632
C           18.48480215200317       19.11921928328525       23.17783812151269
C           19.89796165150296       19.02182803294527       22.63343376865524
C           21.94638728336765       20.70017678931651       20.42545339889929
C           20.81167873328508       20.86628969654633       19.41271030536987
C           20.27912916190527       23.01789107126990       18.36039521367023
C           20.85796328280822       24.06569086212281       17.39264327921456
C           20.22081092410669       25.45278868382711       17.53727966238523
C           20.82387113814095       26.42748498887015       16.52713314229660
C           20.46574974317863       25.95959404362948       18.95790637849407
C           21.81618858349287       22.83778525136800       15.58868384474152
C           21.76219068390844       22.09311851940576       14.24679034603682
C           21.18741591424332       20.69871760008278       14.52749788692579
C           21.28591558367819       19.80642190057536       13.28959483951158
C           23.41216482315814       18.67252096751613       13.21895391700026
C           24.82328360601121       18.75437003152040       12.95431636751836
C           26.01893790325009       18.61668425606160       12.88914034456442
C           27.47254966118557       18.53747913904682       12.77964706296400
C           27.41831135033047       16.61745521740643       14.29507091424820
C           29.23174733311177       16.80706853696599       12.76058698141802
C           27.84431197619345       18.96755168739534       11.35130642764876
C           28.07329500576461       19.53601198600265       13.79297525882000
C           23.20940706017836       21.01365403190446       12.47087920560862
C           23.16776024452840       21.99700373245872       13.64411212723213
C           19.43229620471611       23.52236158192088       15.44438304326221
C           20.69590434175448       19.55243779634694       18.61561304239359
C           19.31770472056693       19.34951684591072       17.97805997998156
C           18.26406715468580       19.00812122406852       19.05266120667161
C           16.69722216808199       20.33118839985822       17.87483121859010
C           17.68944133855265       20.47346925972951       16.72618234558151
C           22.54158375988584       20.15033835020962       22.73839812546913
C           22.28639499174973       18.77006609874095       23.33879889972354
C           20.83630364573970       18.67839571086187       23.80834750994233
C           15.00643620571661       16.92623055310204       20.85648184571354
C           13.73621981203465       16.97066378698850       20.24039974053921
C           13.53921937822410       17.69635263537157       19.07289930570661
C           14.61033176258424       18.36873289810519       18.53681316585427
C           15.88441587744136       18.37757090976184       19.14747096848795
C           16.07185668596029       17.65187397683848       20.31494670075156
F           20.95442453775119       22.76063190356629       13.32118945519381
H           12.21011980582443       16.56803675680429       25.92342361570627
H           10.94338475871502       17.73986140258837       25.55044923585679
H           10.51905420409457       16.05179795471790       25.91118115129904
H           12.00377425860200       17.05269100139382       23.43536455751533
H           10.09288193864435       18.30444720707291       22.83538843527384
H            8.60042096818578       17.37211071911067       22.53772888825975
H            9.03546913689298       17.83842472473932       24.19837399849806
H           11.42008070360193       12.08523154832919       25.26049421649530
H           13.24633229755731       11.35581369527294       23.70624005070551
H           14.21657937049693       13.06012718398966       22.16389204314692
H           10.94053127251951       15.57811887238937       21.40456034974577
H           11.09701894407945       16.72769316462591       20.06682939085386
H           12.16930200374324       14.92809435777489       18.67740601472726
H           11.95795588190304       13.79065730173599       20.01196755334980
H           10.54330080669825       14.47573743801102       19.20623275182169
H           15.80318852725755       14.58930391190861       23.21498652208927
H           16.92566152993327       15.61533403428281       22.31100491189349
H           17.07040065552415       14.86695183904493       25.29925266212778
H           18.25112966376528       15.79895475045917       24.37556782196116
H           17.54653853314258       16.47392761263975       25.84866232643369
H           14.58458100454194       15.51280794871021       25.19673516762986
H           15.10911737258547       17.03419187275831       25.92347086043507
H           14.14771795443803       17.04687153519584       24.44363649261216
H           16.56327731960516       18.56993937134759       24.63463259593326
H           15.83191173653505       18.30445311500871       23.03768005987801
H           19.95174243186171       18.24146574117155       21.86876530590069
H           19.96149559663633       21.04962356962979       22.66001843489159
H           19.87618811781203       21.09566615226715       19.92728070114701
H           22.03454493874111       21.99775821444604       18.13719465046465
H           21.93093891751477       24.15845080901161       17.59620729545709
H           19.14117307660244       25.37955785251825       17.38331712865265
H           20.37858060429127       27.40963339695157       16.65350488305956
H           21.89699184444064       26.51129147232283       16.68540791174305
H           20.65653176869844       26.10042920676676       15.50512684483660
H           20.03404570641259       26.94925110831576       19.08035757783369
H           20.00833230296679       25.29317080118806       19.68350638351036
H           21.53223302942245       26.01872910901433       19.16217870530476
H           21.77900573659731       20.26233400157556       15.33555581871662
H           20.15522274104845       20.76408583262671       14.86931065201117
H           20.68418612628513       20.21643488130735       12.47418218074034
H           20.95181475055536       18.79553007630214       13.52804179520938
H           28.05062727542500       16.95522083710887       15.13288550780018
H           26.38774482596859       16.91295665287007       14.49020403560246
H           27.45839442576297       15.52748509910032       14.25463389024025
H           29.34005648332361       15.72939666839685       12.87211997533570
H           29.50284581671762       17.06796797760131       11.74120436800310
H           29.93092170018009       17.29230155794798       13.45880119277891
H           27.32898251090874       19.89288953224751       11.10814182989915
H           28.91222282743236       19.13951774126232       11.26778625847956
H           27.54066229780494       18.20031791816160       10.64634365788338
H           27.76604822954550       20.54612555124091       13.53781555364445
H           27.72672969616913       19.31792635532129       14.80108614607939
H           29.15771467337883       19.48239132825465       13.76822229440912
H           24.23705611870531       20.88030156648356       12.13315194553781
H           22.60254731427903       21.40113396872613       11.64724418471655
H           23.47502286607622       22.98734955417308       13.30697745528422
H           23.84627002645435       21.67769588114569       14.43513363640892
H           19.25410890227470       22.64542819805059       14.83708265972504
H           18.69562620567767       23.54728596713968       16.24154535926180
H           19.31253382573772       24.40507431904548       14.81967969523097
H           21.46162079947293       19.56148900376676       17.83888575013848
H           20.89480141209815       18.71122910806996       19.27779928765694
H           19.36592777813983       18.49294936736701       17.28159366020150
H           18.35229183069992       19.70656083077422       19.90039779853186
H           18.48543412400276       17.99793851961422       19.39846141217163
H           15.68216015059331       20.41284882195486       17.49949014771495
H           16.87964391768832       21.14905861958599       18.59131309167808
H           17.53913767818779       21.41323792060838       16.19665044823146
H           17.57265771310798       19.62613704017026       16.03475750167634
H           23.53440942983604       20.22351300088491       22.29506432595693
H           22.42743061858253       20.92649001074110       23.50260739735005
H           22.96219457132773       18.60825971115000       24.17753357474851
H           22.48319262875796       18.00726430479722       22.58318278391920
H           20.66341833654721       19.39383629898239       24.61538403117221
H           20.60885629952520       17.67888092178900       24.17544316440591
H           12.58078312033423       17.72139096718507       18.57679706575183
H           14.46769596672668       18.88721441981610       17.60296010618331
H           17.02587568725847       17.62952569380472       20.81540243633617
