151
 energy: -221.327922515046 gnorm: 0.008300495895 xtb: 6.7.1 (edcfbbe)
C            9.88719336807603       16.88034622500035       24.00870236131592
N           10.79708878353406       14.30765294452827       24.40233605084881
O           10.18934495468657       15.86995241610497       21.79109065749473
C           10.85015466405480       16.26720356245263       22.99132728370425
N           13.32288704510925       15.47836649167208       20.92563293495591
O           17.10618234041496       18.83635235841760       23.62786089725407
C            9.82953268417779       16.93910634322744       20.94351737800843
N           19.92322998964758       20.73729773297345       22.79368177190523
O           23.59974532891733       17.08521838240397       13.43425892477152
C           11.52051079626527       15.03144635553523       23.56188916202295
N           21.31851886141382       20.66127733374837       22.72489940295436
O           23.00911283764193       21.67144716747223       16.67915025743999
C           11.33129165219805       13.23702123047105       24.96283631436842
N           21.60917681679520       21.78442127245116       19.35953216774785
O           19.85756370040055       23.21012801344104       19.43493656426054
C           12.63763062523148       12.83543652583366       24.73465297823164
N           21.15092800320616       22.92690283953716       16.58767047045929
O           19.55941606650238       20.13418565384404       17.93988622330693
C           13.39741390823798       13.57807675287001       23.84818410578219
N           22.61731285409508       19.09954174051679       13.07799752026236
O           23.18824494947542       20.81066120518021       21.48424322607138
C           12.83982904898445       14.69255847323373       23.22469685401509
N           27.90645370628194       17.93891754763349       10.98842179992073
O           17.46701343273881       21.02183074328687       23.98407184246619
C           13.63629587636185       15.46711934850240       22.26605855401922
N           17.39802237688258       18.67023535711372       19.00338180327181
C           12.46777268930459       14.52931140623430       20.25582742530356
C           13.19215178922343       13.20384322674908       20.01990322529041
C           14.74170243110778       16.25387764497708       22.50897559622319
C           15.43051321581268       16.43798905885206       23.82478737056078
C           15.14057134894778       17.75007742526098       24.58740677317526
C           15.80944575109114       17.67409396467772       25.96241590122099
C           13.63461582688466       17.94854922928981       24.75653106278446
C           15.68841530386560       18.96505128516536       23.83113888143798
C           17.85983999449772       19.90882450968013       23.70695378120676
C           19.32535493038226       19.58596878616597       23.45782356687295
C           21.96378591854021       20.78106431169924       21.55324083447016
C           21.07910197214429       20.83354437606592       20.30705093377301
C           20.93723428047050       22.87038243737335       18.96641121785960
C           21.61144858751105       23.60955875200763       17.80443203173822
C           21.33283473481630       25.11659787656635       17.80269128991901
C           21.99130923401060       25.78340129505346       16.59710283713852
C           21.87876223242143       25.72302734752672       19.09529562608860
C           21.94543007471068       21.96254047708605       16.11626239867393
C           21.67051205771938       21.16772967303444       14.83084752685256
C           21.57524543157413       19.68296411779965       15.20109881983419
C           21.49774437635734       18.81397913879163       13.94618222409090
C           23.61893995297537       18.21344695848590       12.93816227629844
C           24.73830245036200       18.63755315907926       12.13629315474965
C           25.77411553294273       18.77819551752476       11.53715490376490
C           26.99322216115340       19.07033803849371       10.78675874391279
C           28.23289985264784       17.68771167298145       12.37869571045510
C           29.10748111438973       17.94622008529402       10.18054927069696
C           26.59315415794028       19.18046755412522        9.30612852017465
C           27.53816055559233       20.42987705619755       11.27621851912638
C           22.68268937874472       20.47309633648318       12.63906398303739
C           22.82269041961545       21.40637148553249       13.84509010007701
C           19.77823367453008       23.21150087739944       16.22088270577970
C           21.04195651419205       19.41991124231087       19.70195236691529
C           19.77208835721082       19.11530776753024       18.90631486079345
C           18.55269856893565       18.93677611178692       19.82722792507327
C           17.16818487528014       19.76737193960519       18.09034204539369
C           18.38915793584870       19.87446812982476       17.18264583037702
C           22.02612638544891       20.43235803960462       23.97626792181324
C           21.50017082666482       19.14339326966509       24.60694688307424
C           19.99186550138520       19.26088940357594       24.81050700033224
C           15.14664746765829       16.77473256691336       21.24212059486601
C           14.24368113103773       16.26040155503174       20.28276639549219
C           14.38019707002817       16.56854291900522       18.93381363591576
C           15.41343049223579       17.39035928407332       18.55501764386693
C           16.32879837070926       17.91569717593573       19.48999716545715
C           16.19533613728676       17.59939198809633       20.83206319845292
F           20.49482480264469       21.52596233872826       14.16715952168603
H           10.41577050325506       17.07538244139267       24.93733618022787
H            9.47810618684935       17.81397146944397       23.63353707036794
H            9.08092817997152       16.17738560705846       24.19951777170514
H           11.63137871756252       16.99899239675523       22.72510359623080
H            9.01619643492860       17.53539107447743       21.36749766672944
H           10.69169847075728       17.58902867514342       20.74883927744220
H            9.49691207016641       16.48395792486686       20.01320982940337
H           10.67652200300858       12.68998253185522       25.62854968915319
H           13.04116854981121       11.96938571471988       25.23162094398227
H           14.41690255483607       13.29593525470123       23.62514130106639
H           11.56800909202290       14.37136998412379       20.85370462730238
H           12.17213036410745       14.96587811724074       19.29927665940946
H           14.13059874788973       13.37531788206887       19.48713672577342
H           13.41388585842309       12.72065163984454       20.97230361485850
H           12.56380910723412       12.53980024602234       19.42699541809879
H           15.13854942225571       15.61644065544943       24.48082084180070
H           16.50831172202155       16.37727374255704       23.66001349697056
H           15.38229497972151       16.86314651154924       26.54519383296003
H           16.87758230423113       17.50094761110667       25.85751292340921
H           15.66254954087979       18.60407097470309       26.50725316002047
H           13.42841382473147       18.80658530924646       25.39125243031574
H           13.16642760471276       18.11447257706364       23.79090374467273
H           13.18938873669788       17.06551247719960       25.20783692617881
H           15.50047742042644       19.88950734612872       24.38632677754869
H           15.22525347695143       19.04235492047879       22.84351723771841
H           19.40377504025431       18.72291188969483       22.78964784919597
H           19.64151582882229       21.58552031365859       23.29150615547535
H           20.08350701958581       21.18545671597674       20.58327471310194
H           22.47002352924798       21.53719346889868       18.89012357255000
H           22.69246467144889       23.45160652137508       17.86147964891094
H           20.25281650275576       25.28091982688523       17.78363567528621
H           21.62152288772786       25.37392129148608       15.66112226951654
H           21.79058686087542       26.85119547852545       16.60987524298237
H           23.06840134754806       25.63430161286970       16.63102637480666
H           22.95870807066317       25.60431623042183       19.15208672067397
H           21.64222889029741       26.78436130736380       19.13554801601121
H           21.42891834729637       25.24323928411608       19.96367111388351
H           22.46614112428085       19.43160403563660       15.77836245164766
H           20.69966757994217       19.52627256002293       15.82910404109671
H           20.57027450773486       19.02160120123704       13.40380712283854
H           21.53753150181011       17.75642365350081       14.21257684031240
H           28.99236052823433       18.37873951649818       12.77329982310410
H           27.33538093952957       17.76340109269759       12.98820613039466
H           28.61870226149335       16.67227032298016       12.46323788378087
H           28.85588244156740       17.99823907266464        9.12618881220516
H           29.79687085127381       18.76769048824471       10.43009391995529
H           29.62762414589822       17.00629063635885       10.35896591347786
H           25.71584974911147       19.81545508348311        9.21272447348242
H           27.39904425924783       19.61785448297476        8.72352919680013
H           26.35519278413217       18.19440667218538        8.91778384145597
H           27.69379738424832       20.41726025970941       12.35261535337157
H           28.48197808824014       20.64983734970779       10.78256949301509
H           26.82715748451181       21.21695731230233       11.03955295797994
H           23.52880774836569       20.59584204900084       11.96426848682661
H           21.75581682712685       20.70848052416298       12.10792002392513
H           22.80185406547076       22.44448753269067       13.51269908225436
H           23.75757374881279       21.21889980426524       14.37209062129435
H           19.19199780541939       23.29331129164827       17.13695442893635
H           19.71544045941977       24.14974878375376       15.66959134363003
H           19.35450666279257       22.42169610387469       15.61625988057121
H           21.91352453945657       19.31237401399031       19.05436134997402
H           21.12272550773242       18.68038069443062       20.49908264808138
H           19.91475188566775       18.16115652662610       18.36950405669968
H           18.41644248919631       19.83788293762604       20.44523072760559
H           18.74132045456891       18.07797157862155       20.47016218607758
H           16.27095159634914       19.59780059632372       17.50060329057695
H           17.05894750816120       20.71577391083268       18.64194531107766
H           18.28759670197107       20.70394315875973       16.48368727603486
H           18.50997376872760       18.93049574536435       16.63041490330059
H           23.08768849355401       20.36699180083447       23.73984144323778
H           21.85457125757320       21.28302662619918       24.64433807765374
H           22.00065361904333       18.96806679142918       25.55781176813328
H           21.71686588474010       18.30500824992259       23.94120675191532
H           19.77235289445451       20.06574833931328       25.51637057305953
H           19.57916202898837       18.33183516362764       25.20161320301741
H           13.70908264588941       16.16614163008025       18.19032117805018
H           15.55035976611313       17.61182693257924       17.50756315955915
H           16.89704359899689       17.97381761656391       21.55683716890415
