151
 energy: -221.331904246355 gnorm: 0.008898719525 xtb: 6.7.1 (edcfbbe)
C           11.00599362206126       15.42542529156879       24.75849923866634
N           11.96907254564402       13.13728373359442       23.48547209148079
O           10.40743412022112       15.51682063344510       22.38737130708956
C           11.49461018489552       15.49872562699069       23.31201169286193
N           13.24263930057810       16.24326859975551       20.54343497863487
O           17.71633023436045       18.37125035763030       23.64534042597955
C            9.80653635246182       16.78462294700272       22.23048570077794
N           20.05838810231267       20.83740967747853       22.72998696527361
O           22.67002468914734       17.06946191232850       14.27510375678574
C           12.35856626501241       14.29779810980356       22.97627784631388
N           21.42685165984468       20.94660755458824       22.46036935602855
O           22.95410571085241       22.34093728575398       16.55752984584663
C           12.68295119379980       12.05068419260067       23.25512358642666
N           21.22463099374839       22.36987085615544       19.16381422371703
O           19.40223623868081       23.69978834309341       19.06787650266864
C           13.85021572786992       12.05583922819243       22.50702882078634
N           20.95241482836143       23.34250499875651       16.33683100289408
O           18.84254770895912       20.67536162320460       17.82351091202788
C           14.26217315521879       13.25878639659270       21.96493821520647
N           22.34111081202331       19.13551720478612       13.39418450273057
O           23.03279777017507       21.41406230334663       20.94892770019128
C           13.51009905948381       14.41355649294068       22.18371303496621
N           27.37486897653581       16.51510769461567       12.25215539941725
O           17.68931349372992       20.56593536670148       24.10206133097713
C           13.96044516009928       15.66518182820646       21.56403140821604
N           16.47590401830346       20.60515652003827       19.43636541227001
C           12.17892537437879       15.61160705066544       19.80285604074139
C           12.73611732851225       14.67587223591669       18.73018282712416
C           15.10790519968664       16.38644094313366       21.81319802471400
C           16.15217067411159       16.03812681622865       22.82775238071966
C           16.02469541511903       16.73538161012521       24.20213738367882
C           17.00403348130961       16.08051925172039       25.17961459858276
C           14.60364520476823       16.61086409569361       24.74605191130229
C           16.35505202189928       18.22663750391936       24.07474518410531
C           18.25838123592229       19.56864044464830       23.71278823655631
C           19.71677887589203       19.53736738819404       23.29200962945501
C           21.84706322082862       21.28816013076297       21.23296374417362
C           20.73254796677291       21.50810760337913       20.21015937474901
C           20.52657937531401       23.40391220715764       18.68305287619426
C           21.23909259016053       24.13115231241103       17.53726078082327
C           20.84442192513249       25.60731557332398       17.40368178928580
C           21.54021334405702       26.23748520056494       16.19935614111847
C           21.24227042560469       26.34366298384892       18.68317606344971
C           21.89553176748824       22.48638679333768       15.93830748769897
C           21.68617961942137       21.60825741294775       14.69687757403638
C           21.10592732918599       20.26534082274346       15.15772303190209
C           21.03205334309377       19.28279105662347       13.98743629170326
C           23.09153111521674       18.04796186662079       13.65451766798657
C           24.42634964071045       18.07232127209177       13.11589533135712
C           25.56288537789840       17.93785554028418       12.74552795538616
C           26.91961099970921       17.91100669647519       12.20411093932101
C           27.48410980624486       15.99068633559706       13.59932821775965
C           28.56597750818427       16.21427730780290       11.48374747807786
C           26.81468380379251       18.40691934909718       10.75295295275239
C           27.78591412206976       18.89812727065368       13.01553693443557
C           22.86678523765266       20.36733256401490       12.85332762245162
C           23.01933110004168       21.40375251565748       13.96942250810722
C           19.59330378664286       23.42351581420342       15.84145771763740
C           20.27931674133881       20.13679317631008       19.67282935875138
C           18.85433692744916       20.08028442389618       19.11601569066752
C           17.79650589293576       20.73650017406842       20.01965198004008
C           16.50814557031007       21.27625196538974       18.14873008716000
C           17.54998474161370       20.61503693698216       17.24558140623137
C           22.34274067168268       20.66987104648286       23.55746977062091
C           22.05602239077926       19.27647239096710       24.11322654342219
C           20.58416783714768       19.18223184648507       24.51317393969036
C           15.11157102463572       17.47501088560145       20.88477368789487
C           13.94092584649233       17.33508413716870       20.10534524454437
C           13.65380687208372       18.23894654451723       19.09299333905387
C           14.52096840397070       19.28288852193636       18.88111894400711
C           15.70447793614969       19.45936685432833       19.63411879046012
C           15.99607866091224       18.52746834711965       20.62552020557008
F           20.81458692759860       22.20590114739368       13.78044662991166
H           11.85631988887645       15.41383280272055       25.43276155645304
H           10.38270673645292       16.28394232534720       24.99350289811004
H           10.43087953083161       14.51434348118076       24.89060187141466
H           12.09180817951773       16.40953966135123       23.15952826701903
H           10.54201272140896       17.52059474821735       21.88514562061348
H            9.02949955250754       16.65583796161757       21.48068731689358
H            9.35584728474627       17.13852770654058       23.16120777116301
H           12.29895599602866       11.14182195589154       23.69826005774212
H           14.41106033659618       11.14920319731462       22.34768052188980
H           15.15478691274560       13.31817570036075       21.35854830585259
H           11.54179285118976       15.05607395521439       20.49416905957287
H           11.57993411986594       16.39773557745933       19.33816113080248
H           11.92447826522820       14.26848957945703       18.13568182554740
H           13.41722350658721       15.21690646191146       18.07658479160403
H           13.27902681394662       13.85511096057690       19.19243189707294
H           16.11053262253443       14.96208107326484       23.00571016690861
H           17.13605389407514       16.27779599141651       22.41954226926544
H           16.71373706955677       15.04964285914425       25.36132182545315
H           18.01238375094663       16.09166995145683       24.77655225474538
H           17.00328916832599       16.61020432109466       26.12927350146163
H           14.29812683825237       15.56859433463489       24.75042628152841
H           14.54628713037289       16.99512997780948       25.75892781036077
H           13.91197128001234       17.17121840523046       24.12644477040728
H           16.23672569797593       18.73986951611746       25.03474835254426
H           15.70419415904473       18.71437586627060       23.34299562319192
H           19.84885272645302       18.77474248360508       22.51831715597080
H           19.76264891064527       21.56560836512270       23.38402383063363
H           19.90470091416649       22.02524979085348       20.69534424760920
H           22.15580056977810       22.17443838554194       18.81890678418093
H           22.32015922021548       24.06881601798371       17.69237237241133
H           19.76098925161980       25.68256452179771       17.29038308822698
H           21.24588449019993       27.27800629611438       16.10234511838020
H           22.61959917809050       26.19472630266160       16.32755092821769
H           21.28887297674553       25.72102044536700       15.27810916497956
H           20.94271566682973       27.38526399869851       18.61991867866047
H           20.75524850067019       25.89673258990267       19.54499558323428
H           22.31883499243154       26.30011489933427       18.82931199247781
H           21.77432655601878       19.87108865947937       15.92540251988354
H           20.12209948070103       20.40200084671665       15.60475841993971
H           20.34511161810084       19.66209459897552       13.22449312242224
H           20.69666222400008       18.30339361354150       14.33313015686715
H           28.37589104637297       16.35048276707730       14.13143368925729
H           26.59954016075123       16.26055375685669       14.17333948453193
H           27.53697996256799       14.90596459979454       13.54099819261622
H           29.46136737760436       16.75041828251060       11.83302224089292
H           28.75605807466135       15.14666546645257       11.57500353749991
H           28.40041637935916       16.43683363529852       10.43417907926970
H           26.26178629341918       19.34333350015300       10.73515267177805
H           27.80158901832523       18.58328656815172       10.33494378754872
H           26.28440088299247       17.67635205327385       10.14851681445600
H           27.39577745256033       19.90507703722080       12.90438059099365
H           27.78125767402214       18.64502333313809       14.07218565376524
H           28.80864728097141       18.87687192404265       12.64870047227622
H           23.82992503851869       20.17307958412417       12.38400583655143
H           22.16378011961035       20.74013777809001       12.10270383902579
H           23.34557108811795       22.35721312016581       13.55233228635360
H           23.75631109904381       21.07486971352729       14.70237177637814
H           19.49139374643432       24.22886570085534       15.11392217297644
H           19.29130842729278       22.48962591107517       15.38292861112103
H           18.93732302201392       23.61478284586162       16.68914785732367
H           20.96314476358521       19.83996713088105       18.87614166785740
H           20.35205561941105       19.40618192098271       20.47482447721010
H           18.57901369252688       19.01623517011127       18.99641789145735
H           17.99574768333741       21.81017951600761       20.08815420226237
H           17.83830140671678       20.31875019062455       21.02312364380694
H           15.53749982364978       21.27496757276485       17.66289148630067
H           16.80467201167475       22.31415973282825       18.33017715544860
H           17.61828838322326       21.13258145682514       16.28793779871759
H           17.27445408886007       19.56146370902650       17.07295612629425
H           23.35420411833583       20.75041299941864       23.16114452679595
H           22.19577645177837       21.42681094253898       24.33511283537075
H           22.69319193175600       19.08744957256756       24.97464241591981
H           22.27595662968813       18.53085857160389       23.34763609838010
H           20.36852738608842       19.88834464144998       25.31869038047879
H           20.33885445920077       18.17799364723453       24.85633827280029
H           12.77167253067488       18.14124151546641       18.47941787689376
H           14.26048323710066       19.98336435706836       18.10675567091802
H           16.90087046716253       18.59030343996394       21.20764639311680
