151
 energy: -221.329228320242 gnorm: 0.004700752383 xtb: 6.7.1 (edcfbbe)
C           10.92281694118694       16.36299722170200       25.39206843668375
N           11.29686199934673       13.77034059494384       24.41752185459855
O           10.05594048371366       16.20747443907112       23.09805919189271
C           11.22554772039839       16.13215567269983       23.91225828194356
N           12.80922915534748       16.13984526871829       20.91405763646312
O           17.55549143236955       18.15232097380089       23.39653054696352
C            9.59168758353046       17.52014848946877       22.86837351655180
N           19.92819640624255       20.50471163204255       22.36800000730987
O           23.13431829419961       17.32235765167165       13.75039475309632
C           11.82429129506963       14.75390569305347       23.70289536453824
N           21.30138905126060       20.65976707817597       22.14925002293446
O           23.08187807937506       22.53238029561702       16.47704736607148
C           11.78419264863579       12.54876984503494       24.29705264081885
N           21.17981988745978       22.08078127934472       18.88266897457099
O           19.36658391718696       23.42214086404244       19.05284887096899
C           12.84547808685257       12.23236259156666       23.46295441793624
N           21.00555079898314       23.37113984120736       16.25723691797856
O           19.08006713465231       20.53853639250985       17.51145659518029
C           13.39853522026183       13.25077096920076       22.70952315921273
N           22.77176628338005       19.46838382647590       13.11129837786766
O           22.96969041164053       21.15768706094218       20.72605537918610
C           12.88372374523325       14.54315590370526       22.81062747126554
N           28.08680748866187       17.20970577110402       12.31081595621998
O           17.69000044934754       20.30869140479266       23.98645842805756
C           13.48237951551601       15.59853722265128       21.98531517102122
N           16.89566826008373       19.16682799003353       18.72301121949742
C           11.56450640399832       15.65101088174111       20.37607033783371
C           11.79428667035636       14.47381177977664       19.42922461461988
C           14.75398142306661       16.12058599451074       22.06740497101978
C           15.83240605485753       15.73473298705055       23.02914036868214
C           15.94026555919962       16.58457774395314       24.31334274183839
C           17.06915704891544       16.01954297404153       25.17991466413070
C           14.62933477677243       16.55367788935737       25.09933644097015
C           16.23932020624249       18.04480815877001       23.96064708878960
C           18.16965313262284       19.30696465515556       23.49724671757022
C           19.60460578179799       19.23626656014279       23.00596515834894
C           21.77570681167973       20.96980796931124       20.93398544894594
C           20.74433951070845       21.06461376887596       19.80900063057536
C           20.47097618498572       23.17456647948938       18.58802324427543
C           21.16838393149624       24.05525799373871       17.53956052843952
C           20.67751689770832       25.50812741745138       17.53905523690720
C           21.27571163310051       26.27844961128475       16.35948391777395
C           21.09059372886756       26.15056335124694       18.86304733267108
C           22.03316129339508       22.63361807802760       15.83012811941213
C           21.93306200585684       21.81805015401479       14.53668545576010
C           21.44503669492755       20.41342524832145       14.91364060484207
C           21.44519286469370       19.50593237990619       13.68378245001423
C           23.53767324608241       18.36987546436540       13.24061925837583
C           24.87759487005210       18.47412789452020       12.72507338414139
C           26.01938942052973       18.36836734194332       12.35555000073979
C           27.38647360534514       18.41107362343967       11.84377403475315
C           28.05977062033836       17.02872894628099       13.74721330866363
C           29.42954607470606       17.03520274150684       11.79814791028042
C           27.27108281417356       18.39548455908905       10.30991512529786
C           28.01360005017136       19.74468151359247       12.30478997616300
C           23.25540028267537       20.75557615688445       12.67310600079743
C           23.29771342731834       21.73988632413448       13.84529707773092
C           19.67389861443397       23.39314647916062       15.69009243894627
C           20.64392798432897       19.69057771730282       19.12180208461615
C           19.31454678182929       19.45717535277028       18.39665115713442
C           18.17087124409453       19.23258181157809       19.40501673160016
C           16.70504281018335       20.36433782436095       17.92999570252590
C           17.81718031588379       20.41180421461912       16.88691905595375
C           22.17873104130106       20.48500949078659       23.29577527787502
C           21.95039628586065       19.09550570557331       23.88550827760216
C           20.47532057463926       18.94202920527714       24.24603171144095
C           14.88698513953263       17.02244490734960       20.96836763489257
C           13.66529077593303       16.98485992159008       20.26034723981196
C           13.51674673232178       17.70250662212214       19.08103950386493
C           14.58685751375186       18.42993946104740       18.61654535812830
C           15.81777578646762       18.49912648960704       19.30709508774465
C           15.94614902550709       17.80220995444719       20.50097031700731
F           21.04576407460584       22.39329065628995       13.62290061830059
H           10.20196319942410       15.62243520244728       25.72368771301235
H           11.83604879297637       16.25297524018456       25.96833196382476
H           10.52324401953903       17.36016055419656       25.55234505723122
H           11.94288377250254       16.88689563523449       23.54901728784803
H            8.79931147156917       17.43175381806466       22.12851196917493
H            9.18936845523345       17.97520675583607       23.77872476951318
H           10.39717149865796       18.15354861144976       22.47525690238256
H           11.30260376319329       11.79586939574312       24.90565605573120
H           13.22014298990953       11.22343713536883       23.40269055244424
H           14.21880231455939       13.06155475366048       22.03203595619667
H           10.91767243725245       15.34684776789152       21.20175323622128
H           11.07959455516032       16.47205230350503       19.84343871078472
H           12.42757385997142       14.77442507900039       18.59797011081718
H           12.28086746294302       13.65751451496967       19.95920599568070
H           10.84441877442794       14.11798782933054       19.04141441475841
H           15.67940111027369       14.69804003687831       23.33498590661403
H           16.78843972109742       15.79829554940521       22.50551080607896
H           16.81259009835894       15.01880028054603       25.51625687009520
H           17.99593784554351       15.96917097249020       24.61430925840752
H           17.22925497150585       16.64724914933256       26.05353412822314
H           14.78126908903025       16.93025684013184       26.10811577640455
H           13.88120526099355       17.17146751274953       24.61239993857216
H           14.25244670152322       15.53760273397640       25.16005624262656
H           16.19512529550265       18.68315557372543       24.84912214702817
H           15.52016989517698       18.42018805749741       23.22646897625627
H           19.71272500118593       18.43342922494681       22.27145788879444
H           19.57810808634810       21.26274714545855       22.95941382662512
H           19.78010326715701       21.38440859712651       20.20693840776128
H           22.10781121276574       21.96522594888177       18.49460114114786
H           22.24296517186063       24.05447915290921       17.75159540573495
H           19.58614984082028       25.51978120881933       17.48371160826709
H           20.68487086077567       26.15206136024472       15.45717716741347
H           21.31752178772684       27.33889225684356       16.59084024278040
H           22.28803947476744       25.93412119183558       16.15725573474881
H           20.70595934464203       27.16484465612850       18.92233971174232
H           20.69032883161986       25.58404494527322       19.70066740387757
H           22.17447311501219       26.18164449331407       18.95007381675767
H           22.13962936466854       20.01984152688701       15.65835885603606
H           20.45334525643885       20.45648937233216       15.36422026473113
H           20.74846940504868       19.89200588893985       12.93407136753526
H           21.16554745288418       18.48805117989852       13.95896481615273
H           28.74011999168081       17.70778249320512       14.28604619219248
H           27.04653888151766       17.17746398733709       14.11820353289348
H           28.35982037375293       16.00391390415380       13.96937578747391
H           29.42252904710034       17.05156793578269       10.71269043671122
H           30.14040548257453       17.78918562745449       12.16889129390902
H           29.78180100746005       16.05564749992049       12.11917805383817
H           26.52762003990332       19.12251195682743        9.99418038457339
H           28.22024977014228       18.65223002520970        9.84877748526883
H           26.96010458739721       17.40886824913859        9.97862894588587
H           27.41963232285856       20.57601050891183       11.93282104535306
H           28.04036796575799       19.80201557065601       13.39098820647138
H           29.02440276852123       19.83742088813072       11.91654407430305
H           24.25243206800445       20.64032976755952       12.24778463904596
H           22.57571332545766       21.13676256098448       11.90430016222752
H           23.56968320358160       22.73166372136712       13.48275448931479
H           24.03276754898298       21.42928184466980       14.58757249425667
H           19.57440952166654       24.19610692192738       14.95947706906839
H           19.43922452164144       22.44993717885028       15.20845356931689
H           18.96578287734477       23.54823471921821       16.50102798187839
H           21.46367857287341       19.61749202546724       18.40571091823812
H           20.76910993295706       18.90301110801376       19.86386631589833
H           19.39947324433900       18.53618925304100       17.79132264529846
H           18.17302461873414       20.03037609033263       20.16348674311750
H           18.37293354120308       18.27985134743562       19.89183439826935
H           15.74063965604623       20.36370455888448       17.43311427979363
H           16.78044475278577       21.26494928357255       18.56095549620150
H           17.70522137492508       21.28099763307484       16.24008325477762
H           17.79298860893822       19.49009617462765       16.28713342745289
H           23.20088964737429       20.61386392336804       22.94119541409549
H           21.95025283399407       21.25762732924325       24.03731458341274
H           22.56893116041078       18.96699735735525       24.77193781481721
H           22.23426120133390       18.34163461136280       23.14999776776090
H           20.21182228013272       19.65088504017173       25.03555217558112
H           20.26487559234563       17.93424693737634       24.60211689914934
H           12.59709768526994       17.67825242513470       18.51617031936444
H           14.47361980328090       18.94011535801549       17.67408347244507
H           16.85486134041798       17.83009729937449       21.07706891769144
