151
 energy: -221.327045230406 gnorm: 0.008262589906 xtb: 6.7.1 (edcfbbe)
C            9.93905936753688       17.10202656913778       23.93074949317739
N           10.59295193739861       14.42909532334813       24.38719145428039
O           10.07377082636764       15.97187940565872       21.76002718465901
C           10.80857029339528       16.34764670497562       22.92525266268725
N           13.22732808360783       15.36703450917502       20.93663025649714
O           16.99519314306792       18.76542899508522       23.70992264618979
C            9.92908232590538       17.00691625936803       20.81326422558508
N           19.65375314855130       20.83411624161271       22.96975713510263
O           22.51268498621249       17.60461268660978       12.21428651502186
C           11.37500304336956       15.08217231769720       23.54206359317919
N           21.04957129695909       20.92273161761048       22.98318550247862
O           23.61901241803709       22.13688506192713       16.62237931784594
C           11.05132889699139       13.34146629773584       24.98345910398970
N           21.51440489511284       21.63264163766898       19.51616318379833
O           19.90153024140323       23.21466403910480       19.53135887951909
C           12.33150432360477       12.85160367040145       24.78658050423939
N           21.50749744172970       22.91197500493700       16.74863314261110
O           19.77374897217038       19.73235251400426       18.09889483184938
C           13.15196512437453       13.51848296789211       23.89370710129328
N           22.67374198589620       19.83629436507783       12.57419225464359
O           22.96384171233691       21.12602855996759       21.81833785017048
C           12.67565317290472       14.64979124086829       23.23870140159121
N           27.86773974145039       18.34390430529444       11.33088025875575
O           17.15537361566680       20.94880598035223       24.20399715191373
C           13.52854164694234       15.35925483215184       22.27983198581596
N           17.48645537802614       18.35475926844874       19.05955809685995
C           12.32566903827592       14.45631331510131       20.27648747223064
C           13.00793220277994       13.12116749956433       19.97976645686143
C           14.66541576522753       16.09623119734811       22.52486576507042
C           15.39140684141642       16.23527316164621       23.82647857688687
C           15.12345034962371       17.50947655508669       24.65696923069471
C           15.90493795974830       17.39930470999561       25.96981362268706
C           13.63297857006973       17.66102654982882       24.95589994902679
C           15.57176062731016       18.76713777223065       23.90147726115716
C           17.65454446972702       19.88589156470673       23.89923340783982
C           19.15467934937672       19.70195581690357       23.74047228886195
C           21.74688183702165       20.97547067868154       21.83877186167735
C           20.93713883712361       20.80608796860019       20.54935976794081
C           20.97214245534318       22.78904817438996       19.12192633639673
C           21.79785481335870       23.51363484929911       18.04717249320495
C           21.53558266556692       25.02978837675871       18.07171365123091
C           22.10172828806198       25.70419188770680       16.82570670005480
C           22.16467812025394       25.61617103661477       19.33551886414151
C           22.50483945309538       22.28216691666302       16.11512927188952
C           22.28425306052240       21.75289018448107       14.68420935772564
C           21.54184823594004       20.41568223588968       14.66495792996226
C           21.38732056848063       19.92303768402831       13.22378726491752
C           23.14841253673888       18.65793148153050       12.13481909506062
C           24.45569181184050       18.69235892467909       11.52709607566642
C           25.53102518497334       18.54610887440964       11.00472926685289
C           26.81416943578244       18.45468405295010       10.31069017515968
C           27.92970548078568       19.48093021207166       12.23004391613983
C           29.18524500231223       18.02749340838411       10.81959897686721
C           26.75673963990553       17.18172108559988        9.45203407367106
C           26.94687495361089       19.68950127527777        9.39066329370286
C           23.40549156507483       21.08012753864729       12.54426498797950
C           23.62715110901634       21.60568489425241       13.96355092524137
C           20.10090598300631       22.86581956033645       16.39740114933876
C           20.98997102900123       19.32396200673256       20.15437580049280
C           19.86075180612827       18.87253115685505       19.22500409794412
C           18.52028360569492       18.77517222717371       19.97798127986362
C           17.39754227006061       19.27751577508877       17.94742672892496
C           18.74798731800650       19.28775137477600       17.23262627712645
C           21.69504972190432       20.94276829051353       24.28609944781411
C           21.29498433763026       19.67947749305108       25.04687668606755
C           19.77302261566532       19.62073601375630       25.15199821706922
C           15.10188233547251       16.58577680512616       21.25537552947672
C           14.19671853297951       16.08890261142558       20.29182822202975
C           14.38831152893736       16.34985618593848       18.94129347146309
C           15.47112988821503       17.11075067256474       18.57038712162475
C           16.37424148610482       17.64807936497854       19.51268964325820
C           16.17739275423893       17.38031279050177       20.85982673399693
F           21.54195025244546       22.69892555805497       13.95827228219919
H           10.53319010950310       17.36417690109660       24.80043619096238
H            9.54630586545172       18.00998747234247       23.48257578118423
H            9.11613736646418       16.46466092179044       24.23787539307978
H           11.64978352915417       16.98373308603185       22.60744234057140
H           10.91077905549619       17.37579636729091       20.48801183803352
H            9.40081205833473       16.56933098714376       19.96887733486804
H            9.34498527737037       17.84471936053347       21.20695951916070
H           10.35744948818784       12.85559064944679       25.65620434896202
H           12.67264424337429       11.97025810249765       25.30613891681033
H           14.15205727513071       13.16691392266849       23.68947583174423
H           11.44939121109695       14.29787597720677       20.90839120984235
H           11.99602921399969       14.92397807856302       19.34503051822805
H           13.30804524827722       12.63912120269453       20.90745783822813
H           12.32270102697862       12.46484569861860       19.45124869991396
H           13.89303732438571       13.27509096241744       19.36655593491964
H           15.13388519609838       15.38425920632230       24.45931180111849
H           16.46264549014627       16.19461008431800       23.61582135033182
H           15.52749143994255       16.56948329164042       26.56164891523589
H           16.96029005863683       17.22898907969658       25.76960182144100
H           15.80689287047051       18.31230361555549       26.55251316347983
H           13.46972140347202       18.45789342512579       25.67613036249035
H           13.08603281486418       17.89852804690737       24.04916388929567
H           13.23283793249360       16.73692130843504       25.36377695013117
H           15.30203434176578       19.66878025569468       24.45900071630973
H           15.10492137659467       18.80560997083377       22.91388219866338
H           19.36135022635805       18.78301516697364       23.18483516453194
H           19.24400591898534       21.69283468384268       23.34638620972364
H           19.91587756330296       21.15368706547476       20.71079970173752
H           22.44752840692644       21.39039343874239       19.21683262261855
H           22.86255677061216       23.33839346488653       18.23303173506772
H           20.45778803503399       25.20305536876612       18.12720099504981
H           21.96277756672661       26.77866015294159       16.89449533833444
H           23.16549676490997       25.49647604625562       16.73610200412759
H           21.60513785542428       25.34829386944764       15.92776178402903
H           21.97488868796748       26.68684909243645       19.38290290795399
H           21.74138831262589       25.14680000648259       20.22235455943315
H           23.24317814650079       25.45484143228256       19.33653919243468
H           22.12170638242731       19.69931493056989       15.24762617936339
H           20.55892265670464       20.51405191572476       15.11976430215463
H           20.76087808531146       20.62962790144340       12.66870361298247
H           20.92585466401349       18.93507681470834       13.19548985359928
H           26.92745993070408       19.73446468209508       12.56970022969263
H           28.52465295812407       19.19936185320695       13.09960121092143
H           28.39107592087939       20.36939871563741       11.77282856648002
H           29.16704254933165       17.07442666966683       10.29858161140922
H           29.59189718978020       18.80057055001898       10.15000458041579
H           29.85722943858754       17.93530486421555       11.67130825208208
H           25.81071521180197       17.15229913226902        8.91645033167859
H           27.56451469156968       17.16953849251612        8.72581064994832
H           26.82122193621085       16.30243428008354       10.08646233984651
H           26.88408536146324       20.61011400827017        9.96583401058387
H           27.90187039083012       19.65958937934572        8.86983681966973
H           26.14770151457343       19.68411013650296        8.65524942277624
H           24.36152172213484       20.92432128612100       12.04497969518144
H           22.82258776472560       21.81553147958837       11.97827591270563
H           24.12114141720479       22.57643399514053       13.92400383217442
H           24.25388167769914       20.92758266501331       14.53958891991447
H           19.64984679065252       21.97135993324726       16.83050398967049
H           19.60966302461198       23.73144794641719       16.83324666041199
H           19.94741905485596       22.88637169158227       15.32508062366685
H           21.95239348305250       19.14300734866053       19.67404330123693
H           20.93929460027396       18.71019238750037       21.05261699434672
H           20.09974446164330       17.85838140007239       18.85801692470764
H           18.27948476693683       19.74561843837613       20.44101795856329
H           18.64052453463884       18.02479312053898       20.75795437138357
H           16.61977862631316       18.97864049801429       17.25244858635784
H           17.18280616547284       20.29815574620415       18.30906965505326
H           18.72964979815370       19.97295151282664       16.38270424853602
H           18.98184129074768       18.27143304853888       16.87981307892600
H           22.77028132476144       20.99570394024326       24.11475843784565
H           21.36944467417110       21.83562861984111       24.83163468988309
H           21.73941989718313       19.69229161166727       26.04064387044973
H           21.66690882909818       18.80517804033845       24.51115307488432
H           19.41028508952843       20.46608117406923       25.74198837136512
H           19.45187517799884       18.69868728131378       25.63528447873890
H           13.71826393861617       15.95951648936184       18.18944106832461
H           15.64266048358698       17.27518597037245       17.51918495932891
H           16.84151833765278       17.76980113894315       21.61098350346700
