151
 energy: -221.328250129632 gnorm: 0.007059663310 xtb: 6.7.1 (edcfbbe)
C            9.66619576333271       17.05322943740727       23.56074689085382
N           10.55313693030740       14.56866192046988       24.25572478082574
O           10.38758914677142       16.06735438912911       21.43287948536418
C           10.80274681373193       16.44263396188438       22.74202486403332
N           13.37491300474517       15.33765270982663       20.87541833010261
O           16.92587575673722       18.94402610298366       23.71344823542902
C           10.22550393371514       17.14698128798920       20.54211372649533
N           19.60808426792973       20.97344577232727       22.74738844990999
O           24.56456801960050       17.00221812156114       14.16940659863275
C           11.35897129412392       15.20173684430506       23.41752096956569
N           20.99502161356537       21.09208778683083       22.85905994119613
O           23.51710217219353       22.00755128195606       16.79834297752043
C           10.99279566510545       13.50066749670951       24.89938244217437
N           21.59237109645066       21.67366493390195       19.43192153367028
O           20.10930519214550       23.33712526759196       19.79141392034780
C           12.27875185302905       13.00582998844899       24.75744956159051
N           21.41575540345430       22.81220627695346       16.82538801300922
O           19.94646934207488       19.62548282296395       18.03897849468720
C           13.12605937626159       13.65489046702674       23.87694190796842
N           23.15891971376042       18.73734249218023       13.76324423467919
O           22.99481197070899       21.18497124485965       21.82959618105072
C           12.67214088588228       14.76980351059773       23.17622499932966
N           27.41516606826920       18.17617693045199        9.87028474070823
O           16.99894318156964       21.17888917180794       23.54936226165766
C           13.57087220844321       15.44273225787206       22.23093606800328
N           17.72687349953537       18.19422503334704       19.02577557349703
C           12.52342044909196       14.38154761481738       20.21367261362520
C           13.25769852867619       13.06303913116335       19.97374113557800
C           14.68624861877997       16.20703563068935       22.50009380180028
C           15.31607991754423       16.43677691875293       23.83870863105458
C           14.97862345107398       17.75273447378299       24.57300410792475
C           15.64790623482986       17.71975156715434       25.94996503274438
C           13.46896264138904       17.91964556371168       24.74167517758772
C           15.49031810770030       18.96088618482345       23.78217511508613
C           17.54717289993237       20.09660668791876       23.60275174283770
C           19.05772750636344       19.93578152226220       23.60573778307436
C           21.77841397193899       21.04404027140366       21.77176847705838
C           21.05173877830046       20.79815671781634       20.44469664764785
C           21.07476624019621       22.88506128464347       19.19104593529993
C           21.74994017027611       23.60224985725477       18.01196849103289
C           21.35426917650161       25.08243463298941       17.91648094839204
C           21.77184121060759       25.67413729424829       16.57345248011979
C           22.01123983770086       25.84002838186418       19.06915297669228
C           22.35697989274039       21.97717689935156       16.37033370385868
C           22.08542675636341       20.91124755874445       15.30094329268285
C           22.39848918303504       19.54764716180908       15.93184648945214
C           22.30209049469014       18.43692162263839       14.88727975717212
C           24.26660367678273       18.01234898800894       13.52837075266896
C           25.08180597466943       18.47861467105537       12.43789562900868
C           25.83560709712778       18.77505052735818       11.54743018475067
C           26.69258412071726       19.29454507519453       10.48743011005835
C           28.10285161621157       17.31936993368538       10.81548567296142
C           28.29534145557460       18.55163916715452        8.78266131352126
C           25.76479918118611       19.95626255024237        9.45326943307463
C           27.59309432591555       20.36883075481144       11.13796417802388
C           22.84000164260019       19.97970685325832       13.10054804476679
C           22.97272872163180       21.15335555783128       14.07583663606385
C           20.00696661661600       22.76415573197646       16.48519789002078
C           21.20800259738121       19.32192196784379       20.05825378454692
C           20.07911551337932       18.78505222718058       19.17415700802487
C           18.75252144793273       18.63866501151953       19.94315813474959
C           17.59230251598226       19.13362808393545       17.93061400187796
C           18.91975534546058       19.15513223709488       17.18273988152309
C           21.53582261208885       21.26782260855830       24.19763863122022
C           21.07555790204066       20.10726588198997       25.07615711259997
C           19.55017004442335       20.03859647217568       25.06398778416517
C           15.21516788618279       16.59908279699716       21.23238226029135
C           14.37905625268116       16.02220242222901       20.24882131428605
C           14.65614355186811       16.16980627247998       18.89548752216681
C           15.76055043991578       16.90174363524890       18.53721047400980
C           16.59738328988062       17.51555284974895       19.49352280094840
C           16.32255097644764       17.35740436472717       20.84221612038648
F           20.76600801706654       20.87726085447348       14.85503793823716
H           10.00945936326781       17.24029369562935       24.57354885998330
H            9.33701950566178       17.98951429367474       23.11982384490510
H            8.83530884222207       16.35440543186321       23.59286414205867
H           11.62320987222289       17.17237591668471       22.63921916630622
H            9.37461524505520       17.77844494362513       20.82073210440509
H           11.13471746092281       17.76361161363501       20.50780449130378
H           10.04428200647760       16.70414941069879       19.56263282173302
H           10.27387827832078       13.03645809638430       25.55936194304319
H           12.60485135090848       12.14075964995264       25.31144552686837
H           14.13584856442821       13.30531777003524       23.71720355279909
H           11.63414437377966       14.21817637627365       20.82438341279656
H           12.20648906208341       14.81283072433377       19.26174512953470
H           14.16883395631860       13.23719079271414       19.40898209072627
H           13.52172283546079       12.59956920125757       20.91988496215845
H           12.62353934910742       12.38211129338754       19.41720155064937
H           15.02774268753899       15.61652312983840       24.49945625493049
H           16.39989401827554       16.40251920365071       23.70766203197215
H           15.23248350239835       16.91299428923604       26.54607224667654
H           16.71835766344206       17.56145986236038       25.84840034164984
H           15.48522565156776       18.65730057836772       26.47711513245716
H           13.24867020850825       18.70689344148139       25.46085094887756
H           13.01239911507786       18.18773660100447       23.79206878930439
H           13.02219488424295       16.99084103428218       25.09171083470403
H           15.17919767904268       19.89832463013093       24.25394940188395
H           15.10476359129178       18.93896215430851       22.75800210093898
H           19.32754277617707       18.96014950083375       23.18996322933436
H           19.14986348103838       21.86270067770747       22.95494297829120
H           20.00260157924371       21.07422764929683       20.56984032036657
H           22.45587894196332       21.40141099185521       18.98443882336651
H           22.83679156899956       23.53519614845952       18.12894669719988
H           20.27089071860346       25.17245562216511       18.04208502992908
H           21.24653223948891       25.19591037698363       15.75350117552591
H           21.54668673544609       26.73573971322919       16.55310377869250
H           22.84030690735662       25.54313812824838       16.42263530103149
H           23.09503049249523       25.79354676308058       18.99127605827420
H           21.70411778680494       26.88249972893795       19.05315829524445
H           21.71101909221453       25.40650257186311       20.02137705478541
H           23.40737407812652       19.59415739328102       16.34328415548272
H           21.69144038653231       19.36631642097555       16.74161525938224
H           21.27112872437154       18.35072713260909       14.53127912782117
H           22.62314283049226       17.48482183276336       15.31299803430746
H           28.98650844156821       17.79188885915589       11.26998955915101
H           27.41867904911168       17.02229473642695       11.60774076483617
H           28.43059566175318       16.42407003975665       10.28896424761504
H           27.74409337937222       19.10843652512174        8.03171429257823
H           29.16369753947157       19.14237661396574        9.10844143107138
H           28.66593882825410       17.63648766957688        8.32284310249855
H           25.02755787589776       20.56777357079068        9.96669105456043
H           26.32842196328499       20.59539379954286        8.78001762973997
H           25.25048516212216       19.18962926097004        8.88101373961752
H           28.22222006128948       19.92689634764761       11.90710635455627
H           28.22064561023137       20.83696837095943       10.38494493067327
H           26.97279214486645       21.13148065701237       11.60020708086843
H           23.50664490859549       20.11764572741674       12.25029436047628
H           21.80610605500068       19.92331683108616       12.74685426434073
H           22.66930838038488       22.07666166578677       13.58275579244216
H           24.00127234377504       21.25615175750262       14.42124781741516
H           19.50192739924076       23.57442837339437       16.99966988182443
H           19.85893617512906       22.88018081081604       15.41485077719923
H           19.56729545379526       21.82497298188371       16.81814476255851
H           22.15918346673025       19.20767823106179       19.53703376638885
H           21.24679317798670       18.71558100868124       20.96237578940129
H           20.36081540378684       17.77750406649020       18.82121432514352
H           18.48674608289895       19.59702447537020       20.41779311068098
H           18.89773418306751       17.88343683335165       20.71475534633943
H           16.78670954378529       18.84258211236308       17.26317392601637
H           17.38524900256716       20.14697748238733       18.31352904362364
H           18.89115771886362       19.82959722404688       16.32720624179630
H           19.16296329762525       18.13906596454642       16.84108269902071
H           22.62007376480577       21.30169985129446       24.10489256519226
H           21.17722328040880       22.21881243832335       24.60089808208669
H           21.43928072784987       20.25200229070640       26.09202636279128
H           21.49061531948540       19.17755417695678       24.68598356177152
H           19.13494818079950       20.94302685042026       25.51442168578469
H           19.19622521139513       19.17561863093244       25.62622253408681
H           14.03843457156210       15.71061172970490       18.13946863343677
H           16.01045383004866       16.98194242403659       17.49006896032347
H           16.95241933332350       17.80460383742244       21.59299038337767
