151
 energy: -221.331098352113 gnorm: 0.009259447697 xtb: 6.7.1 (edcfbbe)
C           10.15029775850396       17.16026016052301       24.47498887326697
N           10.95178166389426       14.50083110063241       24.80824992142191
O            9.89276594574892       15.93131180931911       22.36516305224515
C           10.82741647098286       16.40587232864942       23.33157525496625
N           13.10894053205459       15.54430530390811       21.00149374829500
O           17.24058780594799       18.78566596038975       23.26556304956437
C            9.33403676963545       16.93916311659691       21.54915626786208
N           20.09592833517035       20.49042058036813       22.54077679710500
O           23.14676031089563       17.57089589620481       13.02625509520252
C           11.56484128170740       15.18739912077511       23.85576089964250
N           21.46725464258792       20.32820222820753       22.32512247927063
O           23.20375494542367       22.31214658739808       16.68492876894446
C           11.53789198214549       13.43413572056721       25.32096543433294
N           21.39319309274043       21.54469689706352       19.10007655036174
O           19.57280839673257       22.82913043955289       19.46977788914519
C           12.78910608264635       12.99170764181654       24.92181424937785
N           21.10893377265076       23.12667937932896       16.63126995672839
O           19.33742709214431       19.94250421135906       17.55483475361143
C           13.43708198025405       13.70138648639219       23.92724923338075
N           22.83013248578787       19.81023976219087       12.84909473021641
O           23.17845020253441       20.17864794218307       20.87306353191997
C           12.82451495637186       14.81963046200348       23.36245853814311
N           28.03661500654494       17.67569811426838       11.42287646514108
O           17.81313725365268       20.75160542153511       24.18872443929452
C           13.54028102805226       15.54930413205251       22.30816343555648
N           17.25193923458440       18.33078013140382       18.60366773068609
C           12.07799704038035       14.68684575888633       20.47074983122697
C           12.58959852534933       13.26057587742935       20.26814852528445
C           14.71871262645245       16.25380581407917       22.42239246360606
C           15.53062905459990       16.43541378969300       23.66519171002914
C           15.33874644514219       17.76898212733109       24.42067129543244
C           16.12773208268018       17.70695754689993       25.73283269226823
C           13.86335491093527       18.01888591502733       24.72212947562606
C           15.84872947079600       18.94686561067359       23.57892849746184
C           18.09345912318706       19.72043018879154       23.61665909453950
C           19.51976879080822       19.34927346323053       23.24156024101367
C           21.97708021134058       20.30617510732728       21.08586021808354
C           20.97295140981380       20.44613490279873       19.93877429029478
C           20.66470399923048       22.65498991912551       18.94576154511547
C           21.30843264696135       23.66092857826702       17.97988938625161
C           20.77462591948341       25.08779529881074       18.15974564149210
C           21.37233251038746       26.02338008538801       17.11162565246843
C           21.13573153207871       25.57716162495916       19.56250171467594
C           22.13735320983110       22.47736666511396       16.08114059117681
C           22.02829776478580       21.87569075354138       14.67385754800995
C           21.50040791359198       20.44106360716593       14.79079044946026
C           21.50459697485477       19.75788705559155       13.42365372350100
C           23.56683636848340       18.69173844071760       12.72844941286055
C           24.88700756570496       18.86405669087687       12.17950344253869
C           25.99486966454988       18.82869004301669       11.70683132928278
C           27.31945600708242       18.91292802202446       11.09449432775023
C           28.19712416332224       17.45477861952773       12.84538674483248
C           29.28993342803967       17.47553954573332       10.72672707772731
C           27.08320630019762       19.01108991523758        9.57818313075356
C           28.00072536930572       20.20395558861370       11.59600693466739
C           23.33092653895707       21.14842634862033       12.64935666690910
C           23.39526775165160       21.89264200717104       13.98426765002845
C           19.73762502477243       23.15319675488713       16.16556321611526
C           20.92916684141345       19.11910695393334       19.16570427959213
C           19.61608179380670       18.85780168309086       18.42340104320050
C           18.44519716038279       18.58594798822720       19.38473581734396
C           16.96336300113372       19.47683352190374       17.76035675076612
C           18.14985180181190       19.69697402691236       16.82467913233745
C           22.28302869042866       20.10208623826571       23.50578230042153
C           21.77894777257375       18.84886754755346       24.22070928434097
C           20.28999258675587       18.99586773233461       24.52972976996645
C           15.04671248559813       16.70179093813118       21.10669029001921
C           14.02699929385558       16.22602001570149       20.24978549325735
C           14.07658855014171       16.47311056228546       18.88181494870909
C           15.13945519957384       17.18907042493256       18.38600176671950
C           16.16795999509480       17.67723199514439       19.21847520810385
C           16.11801245811931       17.42792475134113       20.57883458262986
F           21.16500544627907       22.62784341232540       13.86661726687667
H           10.88138515644713       17.37632647760909       25.25151075778707
H            9.72668093335940       18.09868835307253       24.12011743406643
H            9.36602364937844       16.53391974657553       24.89357171058037
H           11.54910445822749       17.06453386481866       22.82006820350294
H            8.64013721522959       17.57388996276045       22.10711646811931
H           10.12076385320203       17.56145263659354       21.10942638593442
H            8.79274653836962       16.41969824336418       20.76089605615018
H           10.97657421122893       12.92248256491225       26.09023793075453
H           13.24030450089702       12.12162451484386       25.36991512028149
H           14.40968443611961       13.39475212198482       23.57048257574159
H           11.22766495107555       14.68308894297692       21.15684051816113
H           11.75169090576812       15.10644601139956       19.51665380364458
H           13.50873400603882       13.26840313382938       19.67888028185237
H           12.79608615234009       12.79300782168970       21.22886923563766
H           11.84256850362517       12.67207936220627       19.74496840247972
H           15.28510600986779       15.63113148348743       24.36175265943251
H           16.58670897672251       16.34891325416470       23.40070689253467
H           15.70634202416719       16.95148136980125       26.39014338061936
H           17.16920515802954       17.45661774222770       25.54183480559839
H           16.09315614976193       18.66811866296787       26.23991284647839
H           13.74539225012137       18.92063298557329       25.31676623222670
H           13.30056177213822       18.14127152993981       23.80014506968599
H           13.44613300324230       17.18169832808249       25.27341978591341
H           15.72191063403790       19.89049551473369       24.11771686714855
H           15.31542811709613       18.99237457523191       22.62678806611117
H           19.51082301091186       18.49763153611666       22.55401711844002
H           19.92391343908257       21.33894025416122       23.08185791671395
H           19.99257526281109       20.71477212872670       20.33639435569459
H           22.30299128176293       21.46835811716299       18.66273269544793
H           22.38995721446411       23.66633622353373       18.15262364587079
H           19.68536440478799       25.07311544204814       18.07646027001770
H           21.12169472181261       25.71005934943085       16.10155531844351
H           20.99801935175073       27.03270908825003       17.26167983401215
H           22.45583193184499       26.04032144499169       17.19939092255822
H           22.21477840977035       25.58215968200234       19.69962331955708
H           20.76307103489672       26.58630787198136       19.71164381301121
H           20.69070976095079       24.93278490327556       20.31557358001808
H           22.16076467566597       19.90333608328581       15.47451547363796
H           20.49724760613674       20.43600563797962       15.21671111561865
H           20.80826413287157       20.26613637358717       12.74995486520038
H           21.22148556442045       18.70862934817189       13.52078088061465
H           28.97516366018860       18.08900058549724       13.29774947519980
H           27.25174876477204       17.63888810928822       13.35461348649873
H           28.47445248945861       16.41285389659502       13.00270297082403
H           29.13205647732983       17.48844775680159        9.65564580162498
H           30.05932738511149       18.21384421210798       10.98798672703507
H           29.66591725078893       16.49349856386337       10.99896272994505
H           26.30497411694882       19.74329271099807        9.37942690646196
H           27.98944340908769       19.32349926860673        9.06822948765895
H           26.75960910757300       18.04740970022376        9.19418881813770
H           29.01244412172656       20.26689780719119       11.20305143332053
H           27.44100832556841       21.06944439702784       11.25257469764950
H           28.03803463644483       20.22492976495741       12.68201808799295
H           24.32193024546901       21.09983977548137       12.19869368823812
H           22.65131603783124       21.67629496902170       11.97243251177816
H           23.69107750803484       22.93006912512203       13.81804380507913
H           24.12361571462565       21.43507215347098       14.65220815640348
H           19.09692860591689       22.81610827597710       16.97731916252629
H           19.45151563552270       24.16383041505915       15.88469152258298
H           19.58885248126313       22.50580261899977       15.31458174288647
H           21.75398756078630       19.11645359485423       18.45000776330757
H           21.09172334431063       18.29517943337971       19.86094725614072
H           19.74645037339763       17.95001693837385       17.80622003736821
H           18.31280126588972       19.44735955002868       20.06103738042696
H           18.68326767593790       17.69701996165845       19.97000162162701
H           16.06103688333728       19.30314626811243       17.17852544109682
H           16.82411340798854       20.38514951463008       18.37258931887759
H           17.98873030339139       20.57264157249861       16.19617253915440
H           18.28598325246632       18.80478527213926       16.19605475224991
H           23.31446624916186       19.99174938837607       23.17277159474772
H           22.20180796970749       20.97478122302028       24.16116828487584
H           22.33734013074035       18.70640039392000       25.14417942290796
H           21.94166351699513       17.98249740113457       23.57867333734913
H           20.13640884993730       19.79772463548592       25.25632194172548
H           19.89316981638577       18.07074317929806       24.94660889075677
H           13.31345983607737       16.10180314407464       18.21471937650191
H           15.20421613743492       17.35890929644388       17.32259276509473
H           16.89204063081675       17.78127704339705       21.23814484813762
