151
 energy: -221.330080248737 gnorm: 0.009877421997 xtb: 6.7.1 (edcfbbe)
C           10.42567258312567       17.07098676190896       25.05382133666693
N           11.05284021301806       14.35234089832126       24.93592296324129
O            9.76331528463871       16.09803271096052       22.88634550316920
C           10.85804316159408       16.42785903480489       23.73944336889537
N           12.79859208347045       15.88159370939333       21.05917017812219
O           17.41181001161170       18.27997559954298       23.48644660852688
C            8.95569873496300       17.18757004964873       22.49388292393227
N           19.95361462544250       20.38568206752560       22.20487010656301
O           23.90064311199142       17.17853645875508       14.09660397676532
C           11.58217731852346       15.11804342076188       23.99283790040180
N           21.33452062933532       20.39477246827689       21.98952065293149
O           23.29171523727513       22.28121187451068       16.19274620133941
C           11.60349131797109       13.18480683710204       25.21427817266155
N           21.27796609019283       21.70914813289923       18.69446544777221
O           19.69481038971386       23.27547104977228       19.09331398328973
C           12.72215012122855       12.70012157587866       24.55563321875431
N           21.17559139509780       23.05171757916887       16.17901456908131
O           18.98768403843370       20.27167079446365       17.50692649535047
C           13.28347703032704       13.49233845527715       23.57178651458344
N           22.94869048602476       19.02764881848213       13.18280778997845
O           23.03614539137455       20.65817072203870       20.53859766158546
C           12.72207331322731       14.73383936984988       23.27058141209421
N           28.46347191365228       18.13262094198690       11.66990505790397
O           17.58717463866154       20.51309052250386       23.51926892266071
C           13.38457830189270       15.57022794800791       22.26285781186987
N           16.89911180096761       18.75393426511360       18.69063097847570
C           11.62379081028683       15.25160015701726       20.50998704032937
C           11.97147264702251       13.91997481590675       19.84596732508885
C           14.64904610754649       16.11545587402085       22.33806149507036
C           15.63321339888438       15.93555945039571       23.45060908040732
C           15.62793183294616       17.01544882172181       24.55395391892194
C           16.60148770519811       16.59395404074257       25.65718398362457
C           14.22640145516165       17.19237719651955       25.13519453773333
C           16.06363156079979       18.36565148461209       23.97777370340118
C           18.05962612879894       19.41424109425036       23.31685795053786
C           19.50077531661611       19.18859653394265       22.89711856984210
C           21.83173631178554       20.59492218072942       20.76186154226235
C           20.80170106950383       20.72571401472614       19.63686446145358
C           20.71119259566502       22.90920949005849       18.52072631105302
C           21.42856581690688       23.74050306388708       17.44414982244452
C           21.02576344592745       25.22067779521806       17.44050189372082
C           21.63569964921839       25.93809637208075       16.23839898768675
C           21.50830831597063       25.86302130591122       18.74031860898295
C           22.16897172644267       22.31531497362856       15.67567928258025
C           21.95102515443990       21.38762920872313       14.47205745477535
C           21.71564559973561       19.98393903704178       15.04977919512645
C           21.73308587277089       18.91338004429390       13.95596993158254
C           23.98566668880967       18.19679148788882       13.40766574119054
C           25.21699088501852       18.57146875752888       12.76218719464835
C           26.31527372406080       18.85330954269539       12.35967382405904
C           27.58356543616505       19.29890696224082       11.79113075991750
C           28.66898867564588       17.41359462945276       12.90990214433855
C           29.72452416774906       18.36931877629717       11.00108844856491
C           27.25713369705774       19.87302781425598       10.40091241140961
C           28.12545967592698       20.42510855465358       12.69830186957132
C           23.07927066088548       20.30094180043153       12.51442731557624
C           23.17533803830629       21.41940694322177       13.55200396195876
C           19.80002968812219       23.03630547478575       15.72349043837143
C           20.64169141403253       19.34717225752307       18.97336601165269
C           19.27739145320442       19.13854680512471       18.30829347233314
C           18.18136983335344       18.85403520792478       19.35432975631493
C           16.62487203660817       19.98670676707246       17.97586162945248
C           17.70673150924225       20.17281230543459       16.91759194511213
C           22.18788879175482       20.18429883213845       23.14853035674406
C           21.80751860722929       18.85936347076444       23.80809664850347
C           20.32383291719953       18.88566317966501       24.16694275810164
C           14.86075046328838       16.80830296913804       21.10683830883444
C           13.69441085484916       16.61554500549069       20.33078094288154
C           13.60515945952487       17.13368830119552       19.04396069635945
C           14.67354740956446       17.84117464059707       18.54954309392173
C           15.84006490755577       18.07460329306110       19.30957760450724
C           15.92762210854309       17.54995376470321       20.58915883242139
F           20.85411072309554       21.74861774401914       13.68800359656948
H            9.88959885949758       17.99823264940755       24.86554417760071
H            9.79195898797650       16.37729514278252       25.60193157201518
H           11.30645930803793       17.29457573864262       25.65155203348291
H           11.52384838608497       17.11900001735154       23.19362513519056
H            9.57041420678438       18.05698297453215       22.22878507030594
H            8.40239325962152       16.84941675642321       21.61554384022722
H            8.24599590268091       17.46512671799757       23.27842901834165
H           11.12158500492279       12.62009563429866       26.00141322635488
H           13.13527794412505       11.73633279158294       24.80462076787589
H           14.15051094436228       13.15867936468450       23.01979646677280
H           10.89597212714077       15.09347854162642       21.30836534622129
H           11.18800991662826       15.93461853881870       19.77668584511554
H           12.70521393143995       14.06971412176439       19.05584022300952
H           12.38538002559308       13.23312197249317       20.58075639787692
H           11.07953237391615       13.47400065396823       19.41823749826856
H           15.43962769121868       14.97864736619333       23.93685821498521
H           16.63572304947752       15.90330034787743       23.01949719555529
H           16.27589879641732       15.65881415052187       26.10316518889043
H           17.60199468935263       16.45705933654316       25.25473150294002
H           16.63987507361562       17.35040499267421       26.43790730147297
H           13.87248573575797       16.25734170567225       25.54839386362885
H           14.22752313240045       17.94408910278188       25.92103283786373
H           13.53109467272978       17.50994141985397       24.36860150840507
H           16.02961253114974       19.14832507663367       24.74431439336515
H           15.41322780769918       18.66533241099094       23.14958032373660
H           19.56158200303983       18.34052147723641       22.20840705326927
H           19.66666944637624       21.20771691798230       22.74048710393157
H           19.85444073464990       21.09310176945417       20.03359863631914
H           22.17981345205505       21.52273885861441       18.27628355800442
H           22.50934021256853       23.67656050913505       17.61645053279249
H           19.93632294171647       25.30168067232547       17.40532574241927
H           21.41700327882488       27.00040033591320       16.29345002653552
H           22.71572336162155       25.80686469151784       16.23362321305382
H           21.23790444186559       25.55172026325299       15.30487579453850
H           21.23020683179578       26.91321620573003       18.76402772787619
H           21.05704264473471       25.36841234391012       19.59659388683350
H           22.59060083907585       25.78824100189155       18.82390848318006
H           22.52237099516236       19.78960761785955       15.76029604287595
H           20.76585468429945       19.96334769291246       15.58781752626282
H           20.87770937069938       19.04392765666008       13.28800775256356
H           21.70532853736814       17.91931590937240       14.40411743211083
H           29.36541945087550       17.91934086321100       13.59592020373401
H           27.71738539517641       17.27237075380063       13.41893034700377
H           29.08255035536532       16.43376105048642       12.67248514094478
H           30.20681895051770       17.40438018335539       10.85114138310092
H           29.55400820011421       18.81696690485407       10.02629314683870
H           30.41272265362912       19.00616895487713       11.57814652235352
H           26.40158724652360       20.53910654758213       10.47667639102445
H           28.09580030768882       20.44050323644010       10.00674585576177
H           27.01320193286342       19.06440003756770        9.71822427259202
H           27.39982431386953       21.23221386401072       12.75560365647056
H           28.30768863570376       20.05571019946202       13.70516473850736
H           29.05331370917040       20.81674773327086       12.28903104968898
H           23.96610384881593       20.29185268210584       11.88169487558232
H           22.19135583289232       20.45164059184341       11.89275927225390
H           23.21845331690819       22.39082931907477       13.05820590460051
H           24.06811324750982       21.29551282871619       14.16654634728776
H           19.17437968439014       23.44384305887374       16.51383448885081
H           19.68082584813507       23.63620934925879       14.82058722654863
H           19.47110257200125       22.01845592437503       15.52542400480355
H           21.43339880999122       19.24030272627734       18.23067503939009
H           20.77847452017827       18.56527788879173       19.72075542363105
H           19.33131130242904       18.25376979960994       17.64832320540858
H           18.18325109490211       19.64544526112681       20.12181835385078
H           18.41676465065600       17.89734206304655       19.82107904823635
H           15.64892793751876       19.94996958916499       17.49876681745552
H           16.65057292063598       20.84866907092139       18.66453276328077
H           17.55067255352963       21.10403527527339       16.37232856587215
H           17.68616612658750       19.32207958252495       16.22055509804599
H           23.21819727054122       20.18254167510059       22.79349861149721
H           22.04559162684598       21.01426625667824       23.84847895936648
H           22.40889664292529       18.71000160949120       24.70333065359757
H           22.00833957655658       18.04209297050274       23.11351408787954
H           20.13715419745679       19.67020326400074       24.90565737556331
H           20.00634488694834       17.93098918520957       24.58538264822066
H           12.72969746785801       16.97785293890682       18.43163000884653
H           14.62149956223620       18.20499824717326       17.53541768834290
H           16.80376064345292       17.70364175350967       21.19612774497912
