151
 energy: -221.329637229755 gnorm: 0.006496474899 xtb: 6.7.1 (edcfbbe)
C           11.38843442516968       16.73169771003288       25.62393735298750
N           11.31146378495073       14.12422137097050       24.58410303005696
O           10.15465935685369       16.60879849151558       23.50156853361682
C           11.43197276042617       16.47636664879624       24.11701628581446
N           12.79899429762274       16.49206881555252       21.08297240373835
O           17.89982027826048       17.80147449473745       23.11785225391483
C            9.61286119899331       17.91282866978251       23.52970654786956
N           20.16351173328775       20.31343379246828       22.20968808100510
O           22.98932970687168       17.54119230863397       13.57114889968598
C           11.88619349551867       15.05600165927013       23.83590630970045
N           21.51288580628020       20.53051671161859       21.92219099498253
O           22.78823991933755       22.76565738189167       16.38078678529451
C           11.64959506684209       12.85795730776288       24.42392735283318
N           21.04522241036257       22.10324650810339       18.76036025922741
O           18.94140372386913       22.92742049647002       18.68368493525057
C           12.60522129817280       12.44297010206327       23.50923974803730
N           20.65440229857845       23.39462680015095       16.05335036530261
O           19.23080482234075       20.19365596666032       17.15959447659394
C           13.20292569121372       13.40493884400212       22.71837524127125
N           22.79415066362858       19.70513408424728       12.91883725123369
O           23.05387141515340       21.21513988718390       20.42780050071042
C           12.84375285583433       14.74656993865756       22.85896392510343
N           28.03693628023019       17.16429983328243       12.87040612781563
O           17.98523079193107       19.93021911249829       23.81034855498416
C           13.50017529194850       15.73058828800152       21.99159455399233
N           17.04494962829887       18.87852591431329       18.44041087906852
C           11.43266054027153       16.28387975243112       20.67068824456883
C           11.35407598454235       15.28046764240268       19.52055462690728
C           14.85098920054120       15.98770845218060       21.88708939170188
C           15.96894548467121       15.41872039597525       22.70057327705653
C           16.28258050719257       16.18842374066812       24.00430217728552
C           17.47261247158805       15.52033592750878       24.69775653624824
C           15.07584440217577       16.17300622129680       24.94099063329943
C           16.59717815252175       17.65796969012755       23.70459874228841
C           18.48412120809049       18.96922164473650       23.26186806137840
C           19.90514514770112       18.97872213550755       22.72906433748118
C           21.89082336697501       20.94578387447358       20.70412701724593
C           20.77237503268372       21.01658847884986       19.66573734942950
C           20.11945159491468       22.97687678087889       18.35468310900544
C           20.67165081736090       24.02682753991797       17.37655359042610
C           19.90917846370579       25.35542205542630       17.44375500210496
C           20.47349062626730       26.35678640286804       16.43900940064818
C           20.02696094948404       25.92341388026437       18.85831038732501
C           21.77700292659101       22.77781569338763       15.67087638157347
C           21.83273160665612       22.01283098663963       14.33982940812653
C           21.26764711693456       20.60690367006818       14.56637142217578
C           21.40062067975150       19.77292769514349       13.29363842575813
C           23.50132491435064       18.58693223136964       13.16414476420321
C           24.91212736876187       18.66073565035875       12.89558165191948
C           26.10143745474365       18.52116344222667       12.76548320991413
C           27.54769130316034       18.51720598018803       12.57522213366048
C           27.66628516497319       16.67716606862901       14.18512359250998
C           29.44962684365220       16.95534239658058       12.63222910520658
C           27.80202792621229       18.85954468127674       11.09715570079331
C           28.13334940923741       19.62577265387919       13.47681122870213
C           23.37446304079414       20.99212573596696       12.61755925683513
C           23.27347713965891       21.92829147515762       13.82619702109156
C           19.34971833635308       23.30050095902981       15.43223903796002
C           20.74353643302968       19.64991554784696       18.95493435973240
C           19.43356757134703       19.30638688832212       18.24810184740828
C           18.21467416891719       19.31756637909502       19.18184544542096
C           16.82306566827569       19.77277349128822       17.31839428155207
C           18.07614661466921       19.81151806599548       16.44232022693895
C           22.46537088596382       20.27501782366497       22.98968550663654
C           22.29686642621935       18.83399646404629       23.47274241991800
C           20.84539347671137       18.60507380957062       23.89356785376647
C           15.00096318249656       16.94105679856102       20.83220617368473
C           13.70082211351897       17.22389771983176       20.35719486830168
C           13.51239214600051       18.13027566556715       19.32455759162908
C           14.62138537046569       18.71377743210527       18.75364356984960
C           15.93515649723624       18.39650982529368       19.15464111807177
C           16.11178161534366       17.51604484538297       20.21486089158274
F           21.08421077067291       22.67171427417087       13.35487175015530
H           12.34597096127725       16.47308008986655       26.06426461465017
H           11.17726393526525       17.77760538451565       25.83048304477889
H           10.61698258900356       16.10749566937914       26.06555456359744
H           12.12722235628148       17.18759600221509       23.63765304058538
H           10.34162400967313       18.64556757806804       23.16355867391971
H            8.75118009359488       17.88819727395585       22.86640403883222
H            9.28787886789285       18.19457659831443       24.53464389285362
H           11.13094297464330       12.15699897234362       25.06413077104650
H           12.86599466548783       11.40170872307221       23.41344628096419
H           13.93867437199499       13.13023761360377       21.97847545007598
H           10.85136793319449       15.92366176181086       21.51999484721489
H           11.02405436687403       17.24700444886327       20.35638027058535
H           11.92794716999236       15.63650236840135       18.66777715536019
H           11.76035649398327       14.32311299166371       19.83599552474965
H           10.32099137936600       15.14031416302100       19.21994926343897
H           15.74078699313098       14.38831793178604       22.97785686264126
H           16.86920150240983       15.41506284128355       22.08400074780002
H           17.21110701980431       14.49946741220428       24.97023759216638
H           18.33766238971922       15.49441145125638       24.04006690461731
H           17.74100886471168       16.06147197793517       25.60172648625790
H           14.73613817359051       15.15374653434198       25.10882603610919
H           15.33589917416213       16.61286674447676       25.90052735540209
H           14.25868235297037       16.74264061016998       24.51042631044506
H           16.57300857768387       18.25593888410273       24.61975478998918
H           15.86462773192883       18.07060698880431       23.00693536592230
H           20.00626601771978       18.25456815092677       21.91594486766029
H           19.82813890846012       20.99856436315126       22.89026687609465
H           19.82122249608393       21.22211991216806       20.15762655964231
H           21.99946205525557       22.17913248708977       18.42774406907076
H           21.72330148048814       24.21023038871535       17.61728979325007
H           18.85211598603908       25.16996193748730       17.24190974645049
H           19.87991592271869       27.26559999572790       16.45250243670266
H           21.49578704051525       26.61084518310595       16.70315772253022
H           20.47362671475455       25.96130614049613       15.42773354971053
H           19.51455859660902       26.87975360409103       18.91526675277472
H           19.57597145457725       25.24891414621786       19.58120850822550
H           21.07078568662300       26.07168467538799       19.12429222205599
H           21.85136845069258       20.14812839029209       15.36652886525774
H           20.23286213964060       20.64510611634251       14.89562549573485
H           20.83749122020743       20.23437903160849       12.47878770358536
H           21.04208963676331       18.75686571953464       13.46283515007383
H           28.24161952893468       17.14675112989033       14.99805383553948
H           26.60541666360622       16.85025644358102       14.35723483985450
H           27.84887475836193       15.60314031317794       14.21504261809432
H           29.65212403700628       15.89058721019171       12.74708677967699
H           29.70558905891098       17.24070388047925       11.61626493095820
H           30.09526130667195       17.50137935258534       13.33809170571429
H           27.15998501216260       19.68193791847676       10.79647891484042
H           28.83543186625765       19.15441474452454       10.94197274975916
H           27.57177224632793       17.99538919607429       10.48040873510853
H           27.72730329230983       20.58905481313747       13.18094557389118
H           27.87603126018610       19.44991855621583       14.51901781221084
H           29.21517229212439       19.65633784568646       13.37542220721095
H           24.41918078494534       20.85894133376790       12.33757634593659
H           22.82634899965260       21.42550603236375       11.77565749781222
H           23.60775879586685       22.92734421730367       13.54592980093950
H           23.90040656173733       21.57345678791801       14.64356360200836
H           19.06413462547504       24.26079479168984       15.00324079035542
H           19.33187095662225       22.55590181665531       14.64758964535809
H           18.62757825587250       23.01956336392439       16.19994489887657
H           21.55183232646926       19.63778567600581       18.22102456339096
H           20.94056061126019       18.86793775922105       19.68876253086296
H           19.52900393642382       18.28361833055595       17.83842485097355
H           18.05738173024197       20.33979180807761       19.56368162621573
H           18.40493275515736       18.65435028312495       20.02210584700870
H           16.00867142732303       19.39761987241386       16.70049940846744
H           16.59403281414087       20.79508958437377       17.66467021996613
H           17.94389972421128       20.55096142691188       15.64998770676066
H           18.23742221732753       18.81738314818552       15.99922142032995
H           23.46013526943695       20.45432742836314       22.58333688658906
H           22.27535151884996       20.97393072508045       23.81078785737285
H           22.96163404034850       18.65581273869098       24.31549035833313
H           22.56342095506918       18.14799859974878       22.66773044167314
H           20.60788945067275       19.23840485146537       24.75166319524059
H           20.68023053527546       17.56527083179309       24.17243449166826
H           12.52834511755350       18.38767120244686       18.96543088732759
H           14.45449702184574       19.43821783881899       17.97453159725777
H           17.09753636424500       17.24673278450271       20.55755884389282
