151
 energy: -221.329739054195 gnorm: 0.009439154154 xtb: 6.7.1 (edcfbbe)
C           10.30202165608304       17.34992601269533       24.57755545095647
N           10.69750991314804       14.56351128259993       24.58033185214242
O            9.78420720973376       16.33744909684129       22.39477645591158
C           10.81677303102838       16.61977915196350       23.33672293085930
N           13.01680391821285       15.80236409037808       20.95155166110715
O           17.21749838738072       18.48036968932617       23.75659620763610
C            9.19245910176538       17.47470384410615       21.80343343531661
N           19.78003615660690       20.68552307820492       22.79914306220722
O           23.60059805554526       17.13535228737213       12.94907568863931
C           11.40836653752113       15.27590402556796       23.71850785021335
N           21.17096476136938       20.79594207587349       22.73730799730646
O           23.16201282238651       22.02787557450290       16.65129102978151
C           11.13541845788066       13.37664124477102       24.95877888903457
N           21.35149875079376       21.74641482771660       19.33047316895831
O           19.35710033754235       22.77901713382634       19.07430715492634
C           12.32161948195658       12.82504644648216       24.50240240018232
N           21.07232669030909       22.83213826681276       16.44422269121863
O           19.68110950755836       19.83158381102322       17.87784195781319
C           13.07353578407346       13.56225902697173       23.60651145950274
N           23.11317193406812       19.34804128944530       12.93164931493269
O           23.01865057216985       21.03011497767750       21.47134381604784
C           12.62328458897594       14.81445648958319       23.19079378070415
N           28.49810445945512       18.13318256472724       11.28260046099014
O           17.33714915993889       20.70275915642292       24.00434003397634
C           13.43892289762038       15.57815348977071       22.24039461750780
N           17.42619403329646       18.47658675292339       18.94853223458999
C           11.88626047450273       15.17580438409604       20.31433112045828
C           12.24072161740716       13.78125885544434       19.79992279859853
C           14.68798072658092       16.12518495325025       22.43905905792408
C           15.54037593548969       16.00666414200533       23.66305859243525
C           15.41171541388015       17.14062411728191       24.70272462740564
C           16.31558117899548       16.82012692326160       25.89523214831559
C           13.96383473396887       17.26936879865134       25.17326797280559
C           15.81936049134272       18.48321574236155       24.08746928826493
C           17.84836578058079       19.63248448090642       23.76032926738596
C           19.33367334956491       19.47709814132405       23.48249282949930
C           21.80410183480636       20.89247713512145       21.55721267780369
C           20.91488837165033       20.78884577222980       20.31507904420733
C           20.54200801041555       22.65959094117972       18.78758123724720
C           21.22901000942233       23.52696011656273       17.72273464683065
C           20.69335508804756       24.96417291637765       17.70117119843692
C           21.38840287236041       25.78134261991108       16.61616203758376
C           20.92425867832049       25.60263021544587       19.07075005432592
C           22.12154010781216       22.13617021794382       15.99666023316354
C           22.07768410829583       21.42030579705323       14.63844249980018
C           21.75287759158219       19.94037128148721       14.87194066865751
C           21.82215387700079       19.16586314610672       13.55622937987185
C           23.90943732053530       18.29578846875542       12.67060213252905
C           25.14720932708399       18.59500138587256       11.99658902504528
C           26.19680551674425       18.66545634290754       11.40747859011855
C           27.41018896171045       18.85184576802673       10.61305853653126
C           28.77173526710940       18.60473193358925       12.62598646060822
C           29.72419641062494       18.00941521191936       10.52489105532819
C           27.11500940666449       18.22828025348237        9.23804311067282
C           27.64734662121444       20.36792670567428       10.44556551082064
C           23.44099947876779       20.72498606879001       12.64458190070035
C           23.42902980566267       21.55617084559248       13.92969141141954
C           19.73988722241630       22.83674459185008       15.87747425033681
C           21.02733348928062       19.34438115413441       19.79478835916945
C           19.83762147513622       18.90209922728580       18.93601931424893
C           18.56902201868447       18.72798143958146       19.79466910761428
C           17.28786283268941       19.56248200754255       17.99780611750610
C           18.52678772928745       19.55064071515082       17.11202941519954
C           21.88947758326599       20.70105731906737       23.99829918774914
C           21.54985610755302       19.36357115082655       24.65551283819426
C           20.03745602438577       19.25820854899897       24.83862981986750
C           15.06249356261056       16.72610109994936       21.19868448361658
C           14.00919712166187       16.47232438920198       20.29066631324656
C           14.11337417053598       16.85791678229205       18.96137970898572
C           15.25115481393435       17.51713039058883       18.56182291872059
C           16.29178181111004       17.83985671870765       19.45754783663999
C           16.19262096912857       17.43121382636879       20.77990297988054
F           21.12013057555633       21.97740930595332       13.78558219528946
H           11.09741711838266       17.42076014138691       25.31211435987510
H            9.96961856267084       18.35349506757856       24.32466290327000
H            9.47808532108133       16.78580105178577       25.00290127481523
H           11.58654685348167       17.23151655392011       22.83455473215591
H            8.58913989278251       17.09950879997367       20.98015457953681
H            8.55003997320913       18.00815270593257       22.50955825880308
H            9.95851456461139       18.15763858324758       21.41891162353724
H           10.50439294093000       12.85233357700807       25.66235914381262
H           12.64116240005637       11.85058012130635       24.83217484762961
H           14.00094302335073       13.17571273328027       23.20985838370482
H           11.06169190423922       15.11427077532987       21.02777526737193
H           11.57565576958456       15.81232146497446       19.48256131154192
H           13.09102503684936       13.83440514632718       19.12306433126443
H           12.49733558590804       13.12649089339294       20.63018880219606
H           11.39314452279637       13.35568659925609       19.27194717130456
H           15.29150741710893       15.07310837977302       24.17119984067941
H           16.58281886104088       15.95610857737144       23.34598384692932
H           15.97674050622189       15.91035422351694       26.38216261036403
H           17.34167293877359       16.67876784247551       25.56683097724502
H           16.29049877665493       17.62883401867095       26.62229697802803
H           13.88318278132298       18.00486833080582       25.96986119383847
H           13.33134582529406       17.57961725571344       24.34836819143898
H           13.60434249858367       16.31346753348431       25.54494117887188
H           15.63399306175342       19.30535463230289       24.78637429275067
H           15.25594624031902       18.67125097521080       23.16792381255870
H           19.50532338884534       18.61937057054316       22.82444546952426
H           19.37704150612797       21.49628290231089       23.27199508216949
H           19.88688815907373       21.04606834021177       20.57268770532066
H           22.31401457924756       21.67870066116008       19.02672391770745
H           22.30397962967327       23.55228523726745       17.92704014911614
H           19.61680145831179       24.94260893494108       17.51547621165319
H           21.27806147147788       25.31943817949953       15.63823185716819
H           20.96163996876252       26.77846189121417       16.57561503044033
H           22.45053731900244       25.86687552479923       16.83387354512110
H           21.97902310438084       25.57504008305356       19.33593942672171
H           20.59615870806842       26.63876823104747       19.05301767286003
H           20.36058084947011       25.07765780022333       19.84060731301197
H           22.48935737515682       19.55452675722066       15.57782892224029
H           20.76459657792253       19.83515608254445       15.31976644721238
H           21.04655532968714       19.53079273990764       12.87482795917655
H           21.67873572672620       18.09692985978274       13.72806878201040
H           29.38410454218280       19.51471249917982       12.64327348936359
H           27.83763616321879       18.79911478308661       13.14613594612081
H           29.30501576693481       17.82196150707618       13.16168003229697
H           29.53349225429512       17.51838450865964        9.57583018183987
H           30.22386808374794       18.97344332854232       10.34165447259420
H           30.40771700418606       17.38203414799196       11.09739902632920
H           26.13958117801139       18.56015882848910        8.89254795280509
H           27.86155284496975       18.53364411179501        8.51061476423870
H           27.10373283731769       17.14486832205992        9.31851281523686
H           27.75778671468781       20.85306028891968       11.41175424149066
H           28.54436521260204       20.53960454324764        9.85619453721103
H           26.80156436489080       20.81195730684262        9.92862093335204
H           24.42264213870543       20.77133281349082       12.17454407576539
H           22.69062847342557       21.12547994956015       11.95364773191136
H           23.59989826041886       22.60545779255164       13.68718530065831
H           24.20534508776112       21.22763841136616       14.61841111586535
H           19.61448927740836       23.65644136200877       15.16861649094445
H           19.53250784487721       21.89948288779519       15.36900440570549
H           19.02806058571694       22.94888368229827       16.69262291164203
H           21.94203852800906       19.27286337765566       19.20397860959513
H           21.11363520990304       18.66062605096485       20.63793805373556
H           20.07120931343339       17.91528631248796       18.49366993205726
H           18.41139287293752       19.62390856954925       20.41580197480060
H           18.73893190853030       17.86871182203210       20.44398053557329
H           16.39282653725067       19.45088998926084       17.39379894836919
H           17.24704107215153       20.53205731699256       18.52044947779204
H           18.46453786789477       20.32836699539978       16.35292297216060
H           18.62956737001936       18.56550803381672       16.63619265453049
H           22.95368921509825       20.78396164801681       23.77609198213763
H           21.58482329788525       21.53131277078224       24.64278277613520
H           22.05020467183659       19.29326288706584       25.62135843003112
H           21.90488906904899       18.55020634528151       24.02005953326066
H           19.69666389647496       20.02511417297092       25.53862679908120
H           19.76150618590856       18.28076101507181       25.23325686668297
H           13.34313748281542       16.62992693767601       18.24287937091086
H           15.35081059598845       17.77153013299953       17.51888874899640
H           16.96967965874125       17.64443672953877       21.49468894036810
