151
 energy: -221.328155640402 gnorm: 0.007251337033 xtb: 6.7.1 (edcfbbe)
C            9.87612937065557       17.13975492056748       24.26211084190031
N           10.65251979682267       14.48980124696363       24.84791497866036
O            9.70251888986156       15.68700857477666       22.28738755821685
C           10.59881688421902       16.27497218820267       23.22802277046295
N           12.99114924569307       15.49645770496965       21.18983000806939
O           16.94888002841535       18.75668465972768       23.65317692395554
C            9.21815166158969       16.57386451461289       21.30135087806338
N           19.82629453928581       20.50299887421674       22.76749640214491
O           23.75108240804847       17.31636598705916       12.89877859033467
C           11.32530979723824       15.12538458084876       23.90089164612021
N           21.20267471026406       20.32712780689645       22.59008743221121
O           23.63785889859530       22.22632471797097       16.83206671978783
C           11.22203119286059       13.47984669939384       25.48247641102403
N           21.41345297269212       21.68345342037422       19.32014402514561
O           19.72733627078586       23.18598624023653       19.40546782206526
C           12.50920958671843       13.04385413146410       25.21114736126359
N           21.50241417428169       22.92578394231339       16.67267063330074
O           19.03879230314482       20.31285448458027       18.00401769788476
C           13.21897554655770       13.69790873739583       24.22018260143685
N           23.42963533995481       19.55640908211725       13.01950929992456
O           22.98437861571147       20.41204870709909       21.22497818649037
C           12.63108771137083       14.76051032921160       23.53504549205437
N           28.56189657401917       18.07214855301871       10.78729243177821
O           17.47793039654384       20.86783058140289       24.20490513430443
C           13.39345371982276       15.47539782980651       22.50712440619982
N           16.98502132505065       18.64619088878874       19.00783749863928
C           12.09231206696978       14.53854140181848       20.59224258537413
C           12.79677165045314       13.19951044939230       20.36474751608667
C           14.53424053311461       16.22999415155073       22.67567411666684
C           15.29783395494281       16.40695688548942       23.95010009591746
C           15.03213918365427       17.71057641917329       24.73685345653230
C           15.75241710992331       17.62577880551066       26.08515491265229
C           13.53469400882233       17.90581057868890       24.96742336074676
C           15.55653702710123       18.92692379348225       23.96268333123983
C           17.77739845301763       19.76589419101030       23.79780184629354
C           19.19815630193080       19.36773548459539       23.42984591496860
C           21.77181994227376       20.48088225660092       21.38595118150375
C           20.82959928742014       20.69811302353213       20.20068181347101
C           20.81958949039466       22.83311571937941       18.98384959439074
C           21.62613850354865       23.63251152573221       17.94702182825380
C           21.18553655722807       25.10088418694489       17.85045225059325
C           21.90515720514070       25.80950380228357       16.70686041956844
C           21.48513094809257       25.80335624596229       19.17451873172561
C           22.58238060682134       22.29844973762431       16.19709708932579
C           22.52692254621800       21.60713632378969       14.82636017628390
C           22.12708339081443       20.14001318732023       15.01136225397497
C           22.14177881505257       19.42168802074062       13.66305534505347
C           24.12286222582683       18.46555712485958       12.64962696237332
C           25.31921960356318       18.69648793676572       11.88036716700784
C           26.28423282217414       18.65733220590149       11.15962685768597
C           27.39033802688933       18.73863165058480       10.20647537689146
C           28.93612847608394       18.56687644321369       12.09566750280895
C           29.71957987910549       18.00300471197841        9.92111822442370
C           26.91535136985734       17.96971456470243        8.96025784392928
C           27.60796897186494       20.22484628532791        9.85120982433324
C           23.85618506198451       20.91851437555512       12.80394095544089
C           23.88757178692103       21.68776317266342       14.12794378301035
C           20.16861045592326       22.88219445933024       16.10774683040116
C           20.68028250380192       19.34566152266863       19.47565274635931
C           19.33568985910217       19.15623441862577       18.76899367482036
C           18.20648092203413       18.82896656168511       19.76058320945580
C           16.66219910854203       19.86154126678272       18.28468445023513
C           17.80816328251786       20.16936949431614       17.32182515327879
C           21.98507348119225       19.98387421875175       23.76898317254141
C           21.40788187068999       18.71361349879852       24.39054253813987
C           19.93345219578374       18.94137612019352       24.71614934493035
C           14.86527287487200       16.74624024277881       21.38568328496835
C           13.88504508486789       16.26198357897616       20.48848648374964
C           13.91850442052797       16.60835144591954       19.14123407480012
C           14.93392199916035       17.42350556426037       18.70270886227118
C           15.93653515447842       17.90012551368697       19.57097639910429
C           15.90109170943145       17.55497551764121       20.91061381147094
F           21.60198359317209       22.23884523335905       13.98778359839766
H           10.59659209050043       17.53115682466503       24.97244170618977
H            9.37392763377395       17.97269446032650       23.77758297180069
H            9.14804725342054       16.52993589968886       24.78759410027840
H           11.32934571187466       16.89008150007743       22.67749283582876
H            8.66806677294649       15.95901113200626       20.59595974499475
H            8.54995447219926       17.32681422842592       21.72374017725746
H           10.04743844020330       17.07345300742167       20.78930320376823
H           10.61458147721081       13.00857270962303       26.24298230486922
H           12.93980470269384       12.21854602392598       25.75510805418975
H           14.22055945283547       13.38700787876775       23.95998604644715
H           11.22380898667524       14.40234757916101       21.24237375246045
H           11.75152329182391       14.94577417165038       19.63584268384996
H           13.04752773785151       12.73598831365319       21.31788854027574
H           12.15093937259577       12.52610279171879       19.80604042029500
H           13.71456437101737       13.35662042030395       19.79919943385190
H           15.05413452946414       15.57709115186237       24.61547413814796
H           16.36483820960221       16.36227868465236       23.72369508093225
H           15.37664299196708       16.78512940220289       26.66230971778035
H           16.82132200157412       17.49514145985599       25.93969589824870
H           15.59036859913164       18.53517008628776       26.65800193075058
H           13.35511013996963       18.78442635243309       25.58183008852988
H           13.01622080364522       18.03274228994290       24.02111699541494
H           13.11964518398660       17.03720605332985       25.47302390739958
H           15.43868095645415       19.84545732908462       24.54477190501517
H           15.02563808938376       19.03043632749113       23.01297328504064
H           19.17254788085692       18.52944003113818       22.72692095282429
H           19.64366991896513       21.34671770634812       23.31314534551570
H           19.86719715831089       21.08735667626021       20.53495823054434
H           22.35155954446491       21.48385936409149       18.99840448301879
H           22.68660163883871       23.59384158920546       18.21899405013685
H           20.10513772448551       25.13214185702324       17.68407296719370
H           21.58299086502393       26.84653152343623       16.65865737362791
H           22.98090505184867       25.78685820076668       16.86836147637961
H           21.69362408494488       25.34290070530111       15.74720611886836
H           21.23751050644925       26.85941964336797       19.09966245475321
H           20.89578243790185       25.36856944850622       19.97657201426559
H           22.54143683927879       25.71198412878384       19.42606602716957
H           22.84914092396011       19.68491523744038       15.69303906188186
H           21.13391895798227       20.06469904409151       15.45698832912315
H           21.37646392535781       19.85840475665079       13.01142471929127
H           21.94434975542494       18.35622780419622       13.79245128594662
H           29.63353978505743       17.85947584947785       12.54275526683774
H           29.42669040771795       19.55158611331169       12.06474704589263
H           28.05441076353600       18.62955023429200       12.72859279759962
H           30.45091420075986       17.34882650068574       10.39608688966616
H           29.44901141646631       17.56982347155653        8.96176747442811
H           30.19718307622681       18.98153874074488        9.75561348859237
H           25.89390434205756       18.25730083060898        8.72240616951573
H           27.54265865636516       18.19251487218188        8.10133090603585
H           26.93830905691929       16.90199883190938        9.16161268358597
H           27.88902823685567       20.79416892404839       10.73397211061252
H           28.39113084985890       20.31764469316908        9.10336095864256
H           26.68908613570912       20.64034459534544        9.44666933574815
H           24.84773891028997       20.91516757284157       12.34979137573898
H           23.15096869292919       21.40836794089667       12.12233733443605
H           24.13048124034775       22.73286683269524       13.93526917965856
H           24.63813266117069       21.27824823485542       14.80289490069260
H           20.02683776727165       23.66459569623422       15.36157811500063
H           19.97053154191021       21.91658504846931       15.65101117300290
H           19.45785118032465       23.02173104348202       16.91864723742830
H           21.48815776749822       19.27372052800295       18.74529810277463
H           20.80329613087034       18.53127798322506       20.19008592399517
H           19.41812625671164       18.29783534628914       18.07843164226971
H           18.12222236159771       19.64037541143061       20.50288339759181
H           18.45354717115879       17.89397115448169       20.26494201434892
H           15.73559750989893       19.73628882208607       17.72802289446086
H           16.54740277822634       20.71005531349101       18.98121466977074
H           17.63481495421292       21.11668957235745       16.80972301018128
H           17.89038551552391       19.35535012313860       16.58621282975577
H           23.01525672185542       19.84414228480906       23.44176753270319
H           21.94061837369904       20.81318539337170       24.48290390521129
H           21.96169045129091       18.45902718753165       25.29361118845328
H           21.50582264799552       17.89012684844852       23.67967312087365
H           19.83584386329746       19.73342725315268       25.46428167813866
H           19.47778529561474       18.03368386335035       25.10960589889210
H           13.17508612663438       16.24580814015983       18.44781077098668
H           14.98430958574138       17.68562530640427       17.65712842596375
H           16.65937979585939       17.89822592236525       21.59219503155144
