151
 energy: -221.330419769877 gnorm: 0.006724972514 xtb: 6.7.1 (edcfbbe)
C           10.50154999227611       17.29918106396133       24.78241420477778
N           10.95798623485154       14.52911948652162       24.76725505942183
O            9.92981371706769       16.30676985724901       22.61113520744344
C           10.99261151985139       16.58922888746912       23.52254633123762
N           13.01615221334974       15.76186540131789       21.00724980773109
O           17.39971027342708       18.49266416294467       23.33241154049962
C            9.40307411996047       17.43621254255151       21.95113047954310
N           20.09213426595664       20.49784864213276       22.36961447457855
O           23.04150547150950       17.11455841604884       13.36936554953056
C           11.61649276444338       15.25011094401831       23.87089344423900
N           21.46879808354101       20.43264211117614       22.13954014716893
O           23.04819038498207       21.87982938410782       16.25755672248366
C           11.42403300756026       13.34464557339466       25.11802570791864
N           21.40603939378304       21.65759752811225       18.84482383221901
O           19.65220515983543       23.06646977543454       19.08623147816203
C           12.59264118064383       12.80607143517867       24.60237315058895
N           21.05607591537263       22.92110818177874       16.19668486786292
O           19.23679015574970       20.14453162844927       17.52791696551697
C           13.28934072608486       13.55263699458906       23.67030865923002
N           22.49839624179490       19.20778246122436       12.66761446254422
O           23.17576982504574       20.48265863633333       20.67602840458670
C           12.80350468238342       14.79941282306163       23.27530284224982
N           28.18226471162507       18.17008837844017       12.26911212024798
O           17.80047548156505       20.61889786091269       23.92917660473539
C           13.54543717359481       15.55955117759625       22.26207117291274
N           17.17111146748699       18.53553123641769       18.62507459759019
C           11.85983646076272       15.08971075819504       20.46934374267360
C           12.19628099757025       13.66780861502744       20.01972924706642
C           14.80106675345354       16.12025240975319       22.34805989795075
C           15.75842600492811       16.04374444503213       23.49584063441055
C           15.70794054884880       17.20381712993091       24.51352079578359
C           16.72698677510686       16.92846046008963       25.62393186578186
C           14.31153285609035       17.33148446123841       25.11871725851534
C           16.05104177482518       18.53073620376927       23.82418232454504
C           18.15501579384660       19.55949364477380       23.45805726539877
C           19.57798110580020       19.28770722235211       22.99667165945365
C           21.96972254978615       20.51681600830777       20.89814658573148
C           20.95485687691930       20.63919897940101       19.76093938256225
C           20.71746009735566       22.76769314372424       18.56332459562291
C           21.38422546270296       23.59309773713257       17.45398498737958
C           21.00625170984673       25.07846233376697       17.45914423652813
C           21.70677819486151       25.80062339995404       16.30957268279810
C           21.42337006198241       25.69269627815216       18.79414783205065
C           21.98250297777918       22.11433101571389       15.67812642805200
C           21.75685787307674       21.42715369982183       14.32516803941905
C           21.22104303352600       20.01156170678607       14.57594594470870
C           21.19217083571426       19.18641899833866       13.28426179627901
C           23.37249644427529       18.20028074831206       12.89140409634503
C           24.72804711143030       18.50185600779597       12.51547029413112
C           25.88500297471092       18.77560999196940       12.32655616574275
C           27.22904734691057       19.25305163268793       12.01471323052085
C           28.16469850727596       17.69542606196735       13.63858792518971
C           29.53697895579663       18.42042398231303       11.82353329425574
C           27.21840000785099       19.63052508602771       10.52328426628590
C           27.45766002813535       20.52668335373762       12.86163458059308
C           22.91614598532454       20.53956093969832       12.29150117680463
C           23.07652737791831       21.39420836736971       13.54711902468385
C           19.68714446157190       23.05431134703145       15.74568530070674
C           20.87040590383181       19.27110658324182       19.06145848212073
C           19.54239974234784       19.02281613471825       18.34108386402396
C           18.41635262356717       18.70071888374214       19.34129396433195
C           16.87299750389603       19.74693104935155       17.88346080706030
C           17.99532676610565       19.96613560567556       16.87457192065983
C           22.30971543257935       20.13945125377645       23.28947707833517
C           21.87775508795688       18.79798747541979       23.87994931417580
C           20.39302843765119       18.85642787958180       24.23445587027964
C           15.06314009402035       16.71039548288995       21.07387782315870
C           13.93837852998170       16.44103744064091       20.25990044273717
C           13.91073938122619       16.84330350195009       18.93023384385760
C           14.99201282685310       17.53254454641505       18.43834887372469
C           16.10683778680844       17.85600757136394       19.23897447276924
C           16.14376139803434       17.42890947517190       20.55596668332364
F           20.84591265631638       22.13416254447587       13.53247861862640
H           10.08478761291646       18.27216622101632       24.53678631166093
H            9.73927508554818       16.68246958581715       25.25728885356698
H           11.32964172254040       17.43766585122302       25.47257609677347
H           11.73703520330894       17.21526161555531       23.00117156837810
H           10.20168361863988       18.00867186546033       21.46283177497075
H            8.71660283178849       17.05017453858277       21.20065892622771
H            8.85831911083796       18.08810602144005       22.63773651045767
H           10.83075767685377       12.80977966172777       25.84736269896652
H           12.93807054660184       11.83409945073953       24.91427140514392
H           14.20075528149666       13.17898311938699       23.22521210939041
H           11.07476869330526       15.06043879210343       21.22790290020409
H           11.49781888070627       15.67430036910476       19.62068996226573
H           12.99539862220074       13.68035463129492       19.28229171360508
H           12.51505512810323       13.07012401362957       20.87049465188487
H           11.31714883604856       13.20451441607224       19.58129139096919
H           15.57831594891578       15.11921102906451       24.04636882338328
H           16.76853244715188       16.00526442186882       23.08528104746388
H           16.45719847098122       16.02688043154287       26.16641689194126
H           17.72082561222983       16.79477583438869       25.20305833360399
H           16.75743705145502       17.75768136656323       26.32717416467167
H           14.00731826696464       16.38445347152737       25.55894109837873
H           14.29911352002700       18.09254023412839       25.89406678405772
H           13.59026655848836       17.60143162695785       24.35271073658134
H           15.96086264141904       19.37224809669985       24.51821005748633
H           15.38959346324984       18.69921122178819       22.96931802368175
H           19.57614487521172       18.48662530697283       22.25042021683812
H           19.87125129193894       21.29945907260038       22.96272042259475
H           19.98570996306691       20.95925618882318       20.14865297018424
H           22.28230797793041       21.48191579775137       18.36967884694769
H           22.47065980492442       23.51250458669586       17.57245461398844
H           19.92301319403240       25.17837859567107       17.35932356479930
H           21.43535985222374       26.85250579630905       16.31075661704669
H           22.78632357536519       25.72199441817172       16.42704492481177
H           21.43738279214054       25.37534062472309       15.34656600352083
H           21.17548125265355       26.75036524418434       18.80951978137017
H           20.90474291548449       25.20516292852788       19.61553319433779
H           22.49564737621183       25.58448964365043       18.94444463921354
H           21.88782310016241       19.53728077289838       15.29883236634163
H           20.22484731323961       20.06198109530852       15.01383529437918
H           20.46685493605376       19.60944435003580       12.58397709238501
H           20.92902598041379       18.14991959587396       13.50594950995092
H           28.66254284632283       18.37997669482870       14.34231425755148
H           27.13477370404139       17.54688751708790       13.95962820479300
H           28.67916594847176       16.73525580088634       13.67716152922318
H           30.12126051133620       17.52142402047077       12.01403108008176
H           29.54922148360597       18.60955953957290       10.75432986329252
H           30.02379876614152       19.25751606879711       12.34557862517951
H           26.33141026092728       20.22118496526882       10.30682031680817
H           28.09380899267138       20.22195441407163       10.27350494358048
H           27.19601689848031       18.73113845191262        9.91438676507704
H           26.74862574873087       21.29509005370004       12.56592118400610
H           27.31613984480131       20.32032017137955       13.91982875942270
H           28.46537113686042       20.90227410692255       12.70317958052771
H           23.85369633476750       20.48976430475969       11.74005223564809
H           22.14177517742076       20.96907505376878       11.64953966447577
H           23.35857060103901       22.41327077820656       13.28505390871981
H           23.84588742971994       20.97644283666962       14.19728136988688
H           19.57443698588913       23.90588355019370       15.07476256424251
H           19.36234277925019       22.15648837458976       15.23129114945394
H           19.05688348321071       23.19271608626524       16.62213967765388
H           21.69330841076090       19.21416495753942       18.34687047241329
H           21.01124826837877       18.47737100412375       19.79568646604750
H           19.65579638464811       18.14368450755315       17.68166534066685
H           18.35072693736955       19.50525970893246       20.09295314121579
H           18.67087787454948       17.76172508967095       19.83373103021321
H           15.92176325159754       19.65672474392120       17.36496117396752
H           16.82976601877073       20.61834793653715       18.55980822303950
H           17.81848583563604       20.87050972846918       16.29470471580525
H           18.05418037366448       19.09345948684237       16.20780700918553
H           23.34132194587015       20.11666794115919       22.93956495893120
H           22.19131933380249       20.93907215591438       24.02710024007842
H           22.46641444652724       18.58158798365949       24.77008243126005
H           22.05509951444114       18.00980555678393       23.14597912547012
H           20.23273232465441       19.58500423193782       25.03331857452030
H           20.03943586469773       17.88423936850968       24.57476681086490
H           13.07849218223902       16.61075796576005       18.28270657770190
H           15.00159250893191       17.81495733995087       17.39669346217142
H           16.98832627605954       17.64500040849337       21.18741522024544
