151
 energy: -221.326562551443 gnorm: 0.007571803621 xtb: 6.7.1 (edcfbbe)
C           11.04419901402557       17.11980365707988       25.33870114205643
N           11.38084390619613       14.35538108352395       24.96041629765929
O           10.05663907882604       16.38348836600165       23.21566353885137
C           11.27337941873467       16.53746943237356       23.94485077164624
N           12.80770007779524       15.97778765484905       21.02977381688217
O           17.66537039069115       18.26306828312709       22.87908882710903
C            9.48899318697453       17.59064615644810       22.75190823647158
N           20.42266940639576       20.07333082919294       22.19461907717911
O           23.09061756709136       17.85188596868752       13.30694968686667
C           11.89024434824788       15.15339704016165       24.03400923021696
N           21.68812028304746       20.06769455981086       21.59952748202236
O           22.92616047985545       23.16722278531888       16.88029061270820
C           11.85468911299360       13.12988261329934       25.09670545465738
N           20.88750159688037       22.06263732696038       18.81466881854011
O           18.88100146089017       23.07566774766234       19.07177677049718
C           12.88547934840847       12.62584110653968       24.31882256884073
N           20.77450127020252       23.63398346188471       16.40410186126230
O           18.67959334297809       20.58058050658045       17.20508602676573
C           13.42594126590557       13.45253163740809       23.35045105660986
N           23.14744948974504       20.11664368502955       13.24914607657935
O           22.98546343786064       20.57191355970718       19.83518046088181
C           12.92584135009857       14.74325371348542       23.18074793383148
N           28.03579463217023       17.05523540966969       12.71401490359785
O           18.73299610292820       19.53319891488574       24.39237592213659
C           13.51653915365683       15.60331040486858       22.14844568262249
N           16.68381851807920       18.96016973273350       18.42334281242500
C           11.55169604131729       15.41121057339527       20.60424098399817
C           11.75434817934753       14.06814589400380       19.90331667378458
C           14.78924437791861       16.12755645767473       22.10589296368272
C           15.90268189006437       15.88501123565002       23.07615801217193
C           16.07560754710932       16.93388730401398       24.19537316600559
C           17.20178013412635       16.47800912036878       25.12731000246333
C           14.78271794780597       17.08999399281574       24.99244585454494
C           16.42428954806893       18.30421118336310       23.59771531447814
C           18.71011190465860       18.88898343381898       23.36580370115932
C           19.93633444880817       18.72322153103169       22.47922280047529
C           21.87238188527768       20.49827904115419       20.34453279558993
C           20.62011226257525       20.84065047989037       19.53408361739735
C           20.01780068075347       23.06337343266692       18.62793324626216
C           20.61601303626281       24.18557169178138       17.75397672198902
C           19.80412625333133       25.48676964416282       17.81031291125969
C           20.34484072258685       26.50895187367109       16.81186220458748
C           19.87231047125410       26.05917208329996       19.22681194085697
C           21.96713547561640       23.10530749162249       16.10352191007240
C           22.16716639904487       22.35342511237665       14.77721173360169
C           21.52656420834374       20.96377766918356       14.85997622837450
C           21.73437497700428       20.23367803335615       13.53486648800567
C           23.72118634765364       18.90264607276044       13.16406457868346
C           25.12531582061271       18.87011823038122       12.84811218243984
C           26.26386047500303       18.59873332049202       12.56220701179557
C           27.65318926440549       18.36835372980820       12.17128507912317
C           27.98679577097909       16.99534311956197       14.16177123818518
C           29.28985307348825       16.51986841435588       12.22536085929353
C           27.67036701016171       18.34546826717900       10.63363015930771
C           28.51480573890342       19.54424508211666       12.67565539538580
C           23.85675191046418       21.37368812166537       13.17759330423046
C           23.65588643663403       22.19831776016028       14.45452839795698
C           19.53292689613862       23.40256700531970       15.69271940978314
C           20.42737169291322       19.63897221224659       18.58271039384215
C           19.03440650380249       19.44689650666555       17.97713102572622
C           17.98179419840423       19.11042998467126       19.04806738147457
C           16.34625011154417       20.18236027075634       17.71772438325417
C           17.39391806109690       20.40511920390876       16.63283154381095
C           22.73683142299701       19.39003493183015       22.34483561841532
C           22.32230042479973       17.92565535885334       22.49832916715731
C           20.97496256440612       17.85585247834552       23.21703401572881
C           14.87454005661909       16.87326701705647       20.89123065176461
C           13.63149246455485       16.72965861696385       20.23635502266914
C           13.42657479688336       17.30011887374154       18.98553874849756
C           14.44689636026413       18.02875133889074       18.42213512285751
C           15.68059174674577       18.23506263776223       19.07806510621861
C           15.88791793778067       17.63843211635706       20.31170233136493
F           21.59078791850432       23.07955948388940       13.72396825307348
H           11.98618755840583       17.18452004452162       25.86650015393563
H           10.61205741875357       18.11440827558092       25.27138032166456
H           10.37218612158509       16.47114004396844       25.88821120548849
H           11.94321831784530       17.19573670683470       23.36698079150057
H           10.20279360669514       18.14136633203501       22.12847068121424
H            8.62727292253327       17.29919343607467       22.15754580138319
H            9.16273568322518       18.22743016333270       23.57585563298752
H           11.38459131765863       12.53454777779742       25.86696492144005
H           13.24982434657083       11.62108153498207       24.46139077548556
H           14.22443943873369       13.10696456680411       22.70939449049349
H           10.90247311661336       15.28477482526737       21.47409005892501
H           11.08202302868103       16.12131798406334       19.92054534303290
H           12.43205918918817       14.18129699264052       19.05988778891319
H           12.17645347951146       13.34146915198052       20.59392313305138
H           10.80015105001504       13.69324636337971       19.54591691804737
H           15.74604277006773       14.91863558385776       23.55696036631458
H           16.83571262538572       15.83867996964301       22.51171648602619
H           16.91275192548994       15.56816761244190       25.64631888671160
H           18.11212617745883       16.28031148654326       24.56578426862876
H           17.41781750438473       17.24523114113395       25.86844655419782
H           14.44203613731086       16.12147986215104       25.34345797936033
H           14.94169586382435       17.73646228248899       25.85132443398858
H           14.00584719990711       17.52397361620564       24.37197851762936
H           16.50491617729320       19.05705134571463       24.38691496958834
H           15.66598393739630       18.60353297186576       22.87177828065641
H           19.64936188144865       18.25966375612017       21.53070848108766
H           20.47461603489710       20.58753317384504       23.07682307008371
H           19.75797943696773       20.99783629643515       20.18296675980977
H           21.83204656094624       22.14183829250737       18.45603078044272
H           21.62905760471994       24.39134288960553       18.11609384467635
H           18.75551213586264       25.26300953130152       17.59760590697921
H           19.73444292729720       27.40742195239273       16.83640933956781
H           21.36541263378368       26.77879722002289       17.07335661866070
H           20.34797791299339       26.12194415201325       15.79681471713585
H           19.32029175302236       26.99424280748083       19.27200570234887
H           19.43187614886893       25.36511358494507       19.93650737774436
H           20.90286817413816       26.25092782331685       19.51611967981051
H           22.03131437545829       20.42453341420509       15.66214383868698
H           20.46685207823563       21.02025850388291       15.09679335420000
H           21.25623934095863       20.79788976647935       12.72632347704447
H           21.31082266260987       19.22795010129456       13.57420979671075
H           28.84348251241405       17.49481112158777       14.64284550757187
H           27.06390317467430       17.45071424418401       14.51723497791625
H           27.99086405745850       15.94772378126744       14.46304538942637
H           29.41568047040930       15.52727986149094       12.65615955654187
H           29.25989623338137       16.41428320397483       11.14419537302539
H           30.16311951548911       17.12601403377182       12.50882783055985
H           27.12642329706766       19.20620218651089       10.25453012310662
H           28.68954246859214       18.38991987037756       10.26218317342573
H           27.18782713372776       17.44259971452426       10.27143240444353
H           28.20280203187846       20.46264211596429       12.18569167703864
H           28.40719394821261       19.67258188491320       13.74977842776689
H           29.56092505405848       19.36233425816668       12.44139155632502
H           24.92004326875383       21.17168687669852       13.03387951331489
H           23.48155097569359       21.94445526346121       12.31875882683460
H           24.09602197908094       23.18633327105949       14.32201452393468
H           24.13996258373484       21.72355015331976       15.30662740050829
H           18.94505958749146       24.31672150082040       15.69561056347763
H           19.70643084229412       23.11850439507090       14.66335448507697
H           18.97455110795027       22.62413353412215       16.21097308485104
H           21.15261355127905       19.74954044496533       17.77527137241823
H           20.67327295872973       18.72364897836823       19.12306624086192
H           19.08666760237898       18.58013286428826       17.29274714720241
H           17.96354249671765       19.90063692164804       19.81391280952128
H           18.27623289124613       18.16569276701308       19.50258086115091
H           15.35990071796367       20.11452418054630       17.26925614973064
H           16.36910733033220       21.04529504467634       18.40278673882836
H           17.18115183344726       21.31257961095385       16.06869105869286
H           17.41214772293771       19.53949700637741       15.95608614867954
H           23.66493204744085       19.49799767180014       21.78480036324900
H           22.84051061055507       19.86388206455541       23.32549052943675
H           23.07694903401348       17.37795045812874       23.06127318903527
H           22.23750790972891       17.47791414142670       21.50492733966945
H           21.07987797877534       18.23066335322699       24.23830320444390
H           20.61975028808077       16.82653712808262       23.26072479336742
H           12.49755952373487       17.17043978889021       18.45143142216601
H           14.29878901699963       18.43639745587704       17.43457915625255
H           16.81352702880934       17.75724943840485       20.84518785283720
