151
 energy: -221.332306876597 gnorm: 0.009071390160 xtb: 6.7.1 (edcfbbe)
C           11.43475263463412       15.60120236156703       24.69146528669898
N           12.07688907566247       13.24301468133529       23.35659461887422
O           10.65259416996211       15.72396598828785       22.37146077082079
C           11.80296790222110       15.63361404302132       23.20793930783175
N           13.29974881514545       16.29264285595311       20.40416780343774
O           17.95363364857294       18.23428866675040       23.47319153234999
C           10.08196216598342       17.01151534390329       22.30005385449391
N           20.05744549722593       20.89136629205261       22.82151052592863
O           22.06183847830503       17.05927626383550       13.90534231364169
C           12.53036114815478       14.36183905836936       22.81216680336547
N           21.41043559966868       21.15514516796112       22.58626719008606
O           22.79254481611935       22.20714051732159       16.55255732776894
C           12.66194710003107       12.09539270067219       23.06086967346241
N           21.19306083510248       22.38982488369357       19.21345263809879
O           19.35705992198015       23.69785728937759       19.07526289213818
C           13.75049277646218       11.99648811264013       22.21058923299131
N           20.86087137748853       23.33791264184808       16.32264480002711
O           18.98077854444762       20.63854165896410       17.85938214404354
C           14.23143247825162       13.15944547486143       21.63411265779858
N           21.99717048185660       19.20269152879976       13.16307688047010
O           23.00948817949858       21.67943822732587       21.08496418400600
C           13.61626104351682       14.37591835034047       21.92141896046149
N           27.11664920054118       16.45432087341051       13.10953154980462
O           17.73392252291710       20.29978022337401       24.32583493408563
C           14.09499966322862       15.61555828049056       21.30164269409813
N           16.52563356846033       20.66219037630362       19.34183706286306
C           12.16699147706473       15.73667371813069       19.70649060578675
C           12.60644414686570       14.92087311198478       18.49155384579149
C           15.27517466810766       16.29644316212975       21.50870232420249
C           16.43438031616505       15.86143967742336       22.35185973585460
C           16.45007951235465       16.35814070619922       23.81493297998074
C           17.61875539236490       15.69288264492689       24.54900370199108
C           15.14384337246429       16.00598786913574       24.52608021880182
C           16.61754751234680       17.88214308716123       23.86582053891867
C           18.39516141976755       19.43260894518940       23.78898022327665
C           19.86808418006792       19.58975209373213       23.45167698022289
C           21.83203655482091       21.46331349126981       21.35007583533680
C           20.72434521557505       21.56748017519411       20.30162855056523
C           20.48231853934427       23.39424910665124       18.69642758200532
C           21.18769924614368       24.09987914017043       17.52955417217032
C           20.82492690514230       25.58745674853737       17.42592184943313
C           21.52215809275324       26.22713659207696       16.22751085931629
C           21.24504165112160       26.29267185107721       18.71528852252970
C           21.75865764869121       22.43486078563265       15.91712573546407
C           21.52909476276292       21.63447386019584       14.62665300200227
C           20.82171032919865       20.31946331026377       14.97081073413022
C           20.68748913865493       19.44189324976583       13.72563761041732
C           22.61880505745717       18.02912212493418       13.38733781951955
C           23.99063688146005       17.95286136773088       12.96325411846990
C           25.15602663511082       17.73845500002364       12.74605777752756
C           26.57294794044759       17.62955334916778       12.41716588339943
C           26.84131435377979       16.41574621850370       14.53291453097330
C           28.51932433861266       16.19654282205617       12.86247141423274
C           26.65513404186443       17.42681703637303       10.89404328692821
C           27.23957745521325       18.96862292688241       12.80296886707351
C           22.67107136079176       20.40955138846297       12.74592006579632
C           22.86759927858178       21.35190461433919       13.93677364360740
C           19.50610082720936       23.49099129534412       15.83228843987583
C           20.30523380183190       20.16704685929937       19.82371723965730
C           18.92062669341949       20.09491010126637       19.17631317206258
C           17.81697023320952       20.80746783164922       19.98093236893339
C           16.61769491170346       21.22694432566167       18.00814591355579
C           17.72363798896457       20.52052786878649       17.21797831229386
C           22.31159061399461       21.07238347947449       23.72453433914999
C           22.17120455307634       19.70656189048515       24.39487784460203
C           20.70425417104530       19.44926530135272       24.73762116371897
C           15.21355962428461       17.46415176468060       20.68532226166517
C           13.97244775227024       17.41661552256424       20.01013761936576
C           13.59443126724635       18.43402289567310       19.14483679399330
C           14.46276626024384       19.48009748307680       18.95345967883092
C           15.73423868531946       19.53354041112511       19.56573286398949
C           16.10008224599364       18.51582497934541       20.43854888755663
F           20.74962396707183       22.36219323266981       13.71930874326280
H           12.32426309354818       15.40878023803598       25.28245891378756
H           11.00095431179733       16.54792749532827       25.00136819366135
H           10.72054584913569       14.80097991158401       24.85487061036956
H           12.45180777289638       16.49960295079895       22.99637570405271
H           10.82497716281442       17.74865774241371       21.97493828764152
H            9.28600522256225       16.94066416657808       21.56292192570290
H            9.66037580140759       17.32423545182290       23.25943061700548
H           12.23104387157307       11.22436752701476       23.53581467202471
H           14.20191824814658       11.04047589341420       22.00037095181205
H           15.07001726944745       13.13477682364486       20.95284720440124
H           11.59690577033208       15.11049763173866       20.39534769422541
H           11.52814045851726       16.56179478139565       19.38648427792007
H           11.73360040585859       14.55260832229319       17.96040244372753
H           13.19744784472199       15.53659151403146       17.81699874029912
H           13.20904456488835       14.07031795514962       18.80223929260974
H           16.45653956966910       14.77019032684793       22.37910986712556
H           17.35100134432507       16.20817705037805       21.87187093330562
H           17.46607269375168       14.61854352553463       24.59589484900567
H           18.55504002464423       15.89152432127587       24.03687787563135
H           17.69074163282807       16.07507106060817       25.56464948360325
H           14.89663206422292       14.96096287262177       24.35902650739903
H           15.23765107081105       16.17134810729390       25.59467232776108
H           14.32979580831525       16.61703085496621       24.15078992260454
H           16.44897266410488       18.26070845644654       24.87932570574016
H           15.91061195442132       18.37472762965384       23.19250216690882
H           20.15576778653947       18.80851708597929       22.74233994328031
H           19.64947410758817       21.60951556853948       23.42120920691341
H           19.87607124308485       22.08132945009151       20.75541315769055
H           22.11548298549101       22.18314874948994       18.85293802768539
H           22.26947798350830       24.00805841736626       17.66860858020459
H           19.74113711095384       25.68398549614138       17.32442907554248
H           21.23303990519832       27.27117458582843       16.14440872612338
H           22.60186731075897       26.17710328615844       16.35410112540296
H           21.26652397631799       25.72421371797008       15.29920851840412
H           20.98982787205230       27.34675015192335       18.66080728645586
H           20.73273919327552       25.86013389872184       19.57083164005493
H           22.31739693892951       26.20163047934947       18.87119834686301
H           21.42783761261404       19.81013539546969       15.72167586368148
H           19.84371692545767       20.50761790539481       15.40817739252015
H           20.06930466429850       19.94492134026110       12.97670313982423
H           20.24328794356403       18.48026636475760       13.98425958394875
H           27.47565001588426       17.10060909697749       15.11590431823259
H           25.79707648321914       16.66112909646694       14.71631694536907
H           27.02090630288639       15.40150253692317       14.88578829607811
H           29.18435096989742       16.95185224544457       13.30892237077652
H           28.76422592189552       15.23125988688061       13.30543301059850
H           28.70724079305307       16.13746902730714       11.79493742092461
H           26.01189274626056       18.14747738535943       10.39492973169470
H           27.67181725962309       17.57186271493708       10.53973193882367
H           26.32439526655801       16.42358047372509       10.64354919208797
H           26.72498776027195       19.78887842344340       12.30881711567009
H           27.18510674229849       19.12577749742126       13.87842643908303
H           28.28108171268156       18.96868468041346       12.49234818461030
H           23.63549818879391       20.15304313209411       12.30809776608357
H           22.04999812069801       20.90387616220673       11.99309366097699
H           23.29887945289690       22.29382424738054       13.59591772424199
H           23.53903804397343       20.91128219540800       14.67381047448835
H           19.42577966019957       24.35252869958683       15.16875102032695
H           19.18116887967221       22.60749724931015       15.29692318269556
H           18.85116282950235       23.63199032336222       16.69168109319479
H           21.04205424478118       19.81398292640891       19.09991065797908
H           20.30454732192198       19.49155954265126       20.67579105390598
H           18.64650912669239       19.02921292759968       19.07898126217746
H           18.02815333672208       21.88101306728037       19.98435929112737
H           17.79035744632008       20.45208850788553       21.00985937485936
H           15.67953937551276       21.13758483838721       17.46908821058013
H           16.87408358663966       22.28556006638185       18.11279258179151
H           17.83399655409366       20.96920936338421       16.23054144749343
H           17.46765410246385       19.45374337729806       17.10847580120225
H           23.32159750850510       21.23610599437745       23.34868086560855
H           22.05476399882957       21.86988751930837       24.43057911982337
H           22.77990766244898       19.68156291402602       25.29695836137486
H           22.52856931687488       18.93328709536472       23.71357866491376
H           20.35131024742754       20.18124904432685       25.46807507707415
H           20.57691876747477       18.45154490260359       25.15631597596341
H           12.63899014914871       18.42422475981414       18.64357434327161
H           14.14434179408194       20.29420711321619       18.32293318297870
H           17.05975460796785       18.51902118047600       20.93062476114040
