151
 energy: -221.330403909078 gnorm: 0.009881570978 xtb: 6.7.1 (edcfbbe)
C           10.52127117012856       16.70358065782369       24.65991241631063
N           11.22660015192244       13.99578514530319       24.51323585993041
O           10.11511680765354       15.84787166191387       22.39599419655221
C           11.11363228273224       16.12479182680332       23.37656852023056
N           13.20218513619303       15.57152503097287       20.79717110192203
O           17.32846011948410       18.52156864635420       23.34492737172368
C            9.62140880787765       16.98579676305752       21.72374658515126
N           19.90831696581201       20.69805825858278       22.57702267024917
O           22.43331584714167       18.02024856113172       12.48694651459429
C           11.81989479256860       14.81012329732419       23.65224170187655
N           21.29412357232152       20.75212126343640       22.39459800955965
O           23.06885543673701       22.41017433483873       16.69553922022675
C           11.78547692897570       12.83358211668512       24.79618927260292
N           21.30219006205328       22.00145697326349       19.10834946033809
O           19.46252173513780       23.31154605202419       19.26254869858199
C           12.98723767285364       12.41430651172439       24.24388715129762
N           21.12082602578455       23.51626891374831       16.51604591599482
O           19.31604569534376       20.35189834051204       17.64311520067612
C           13.61162866336528       13.25612605044722       23.34287530308614
N           22.64867024806792       20.27479053927844       12.57719800136513
O           23.04728989821767       20.96638822649004       21.00466341006438
C           13.02645704494593       14.48042541872756       23.02028558149239
N           27.32242775909258       16.92100533500289       12.01404185715736
O           17.59731073448019       20.60202963856587       24.13265598978573
C           13.70631981800891       15.35681851133389       22.05872599938372
N           17.24078361007083       18.70338761669965       18.66535245292021
C           12.11234500879600       14.84583374232658       20.19482524590253
C           12.58817925150217       13.52559362620949       19.59074904425001
C           14.90081254047497       16.02353991450697       22.21940691718255
C           15.79211137927960       15.97167706908766       23.41974935675843
C           15.65163577809717       17.12715037100903       24.43498473980669
C           16.63383235778663       16.89098321680935       25.58569600902271
C           14.22825258521651       17.19944939935953       24.98547000511343
C           15.95792199678150       18.47150475935406       23.76453302917259
C           18.02756467129556       19.60228638298949       23.59993623376234
C           19.48192322131401       19.44650265791572       23.19411417724836
C           21.83489040041201       20.89346191026215       21.17573638424334
C           20.86122813847611       20.95425257696315       19.99625804604435
C           20.58948269649565       23.09758785364207       18.83241152510288
C           21.32015248799249       24.04223891309148       17.86698858353020
C           20.90293635923310       25.51047599023133       18.01747884430795
C           21.66156972956091       26.38404709747496       17.02003367300316
C           21.20825833407181       25.96536832980337       19.44490608901322
C           22.09342627853533       22.74746152780503       16.01820040928776
C           22.03275422749788       22.27582993739047       14.55656315012164
C           21.23823771655295       20.97102053068032       14.43678200492793
C           21.27880087153112       20.46800108522111       12.99328485231993
C           23.13244275671401       19.03301261597041       12.40229206515411
C           24.53214051595010       18.92192766318132       12.08585943717012
C           25.66448338461986       18.58500017568801       11.84890199428071
C           27.06742650082639       18.29393209647082       11.56541406031039
C           27.02136040809474       16.68421214568819       13.40974341480649
C           28.61806206910038       16.37602291716589       11.67087772711586
C           27.24076267272742       18.39493156590750       10.04030018742769
C           27.93041533403913       19.37041852580286       12.25668589626452
C           23.44646636124446       21.47712455544961       12.61457282076213
C           23.45646917908335       22.07321714496397       14.02515761566324
C           19.80597644305591       23.73181205562916       15.95076510413409
C           20.88054551222131       19.58524687342407       19.29546274654348
C           19.60629377138907       19.26832535819759       18.50936030075974
C           18.43325200508647       18.94009306134356       19.44972051753789
C           16.94871607441009       19.87159366236633       17.85540516360863
C           18.12762008565154       20.10849902721744       16.91362633970244
C           22.11012921245172       20.54986714884993       23.58012954057994
C           21.77748967243416       19.18282572529560       24.17722013658390
C           20.28106788005425       19.10792178124330       24.47247479321567
C           15.16085318637199       16.68293797386453       20.97852033005674
C           14.09023577213149       16.35743089690704       20.11406157185298
C           14.07319674485183       16.81217415779296       18.80092907822006
C           15.11701210892381       17.59390871954987       18.36666536031127
C           16.18734883556531       17.95791729287268       19.21085637366919
C           16.20285953476714       17.49130138823143       20.51658314069824
F           21.42549784652333       23.26247742359434       13.76849731420169
H            9.76877411106017       16.01903363125702       25.03902755871554
H           11.30335234417185       16.82165991497848       25.40335124677570
H           10.06724921941573       17.67351627187207       24.47226567710015
H           11.83879441502479       16.83080544721054       22.93836609088828
H            9.04676576292818       17.63477086264269       22.38934819765576
H           10.44250169103494       17.56123109740107       21.27799985384767
H            8.97172939585441       16.60628231384637       20.93942822205210
H           11.24584125286440       12.21589997563364       25.50092914457724
H           13.41311943935692       11.45995805681086       24.50888457719012
H           14.54378123194577       12.97563592753758       22.87231253769880
H           11.35121180804236       14.65553820199100       20.95474314087874
H           11.67267255088106       15.47768323872115       19.41904061027194
H           13.34104288040415       13.70620156886240       18.82675741232249
H           13.02197715765778       12.89606749390494       20.36314332332359
H           11.74976707462022       13.00085543559052       19.14486975553539
H           15.59665149202252       15.04223635026921       23.95857461930719
H           16.82959864499304       15.95368747766879       23.07502631399459
H           16.37316847294602       15.98094769314326       26.12119296745460
H           17.64718148742994       16.78915513652479       25.20718841308608
H           16.60596909604642       17.72271323993583       26.28646206424065
H           14.16675258255800       17.94010052557063       25.78222578786871
H           13.53090293957254       17.47861636184788       24.19718428706862
H           13.93076840123039       16.23073162148319       25.38474902282281
H           15.77859513213287       19.30306609951086       24.45273761481827
H           15.33704196423399       18.60267281890939       22.87512266519747
H           19.58402399666925       18.64130611003645       22.46128131869608
H           19.60639747376733       21.47005922828155       23.17708953232899
H           19.86286231552224       21.22446907428306       20.34572923635407
H           22.22403249943631       21.89308693323737       18.70117651790137
H           22.39471964116214       23.96946831034717       18.06848394176446
H           19.82542650534448       25.60006775639751       17.85561350519071
H           21.49610201823127       26.06460254116206       15.99503695369428
H           21.34090049124609       27.41735131014986       17.11541830202398
H           22.72985265623054       26.33488228846770       17.22095039578432
H           20.99466009900233       27.02306938668701       19.55176884243541
H           20.59784711417490       25.41805095146017       20.15672003482257
H           22.25366689637811       25.79543882876698       19.68514235334557
H           21.69716240565745       20.24061671090229       15.10566272745935
H           20.20536037791634       21.10861297272902       14.75191317862834
H           20.80978468294481       21.20319550174056       12.33189051127005
H           20.76050776455427       19.51134698765324       12.90513004458086
H           27.80096420115116       17.05084652227201       14.08889758245443
H           26.07831305955015       17.15603920839077       13.67220754076770
H           26.91653068988268       15.61303067405978       13.55862910841950
H           28.78394588206950       16.44253040115566       10.59935139747928
H           29.45192235019069       16.86378424681039       12.19927132335231
H           28.61634656675393       15.32171198580715       11.94666663631448
H           26.76320246228261       19.30078458832859        9.67795944173662
H           28.29342333628104       18.43009222871554        9.77574714216956
H           26.77109464836619       17.53922847192606        9.56335423675742
H           28.98627978065843       19.18896843307435       12.05757219821268
H           27.66547716609908       20.35314778399268       11.86936715516754
H           27.76062544863393       19.36606551340598       13.33281259863428
H           24.46519120472514       21.24470754267973       12.30254439914525
H           23.01196750587717       22.20305091109023       11.91850289166552
H           23.97334481405661       23.03409190036348       14.01252762222804
H           23.97666141127575       21.41519329558490       14.72147057609039
H           19.70064331348356       24.75568706314169       15.59120534273217
H           19.61485322596450       23.05540702408252       15.12630400585890
H           19.06762843379540       23.54709869748459       16.73423937791880
H           21.73798943903162       19.57408082576132       18.62047663748939
H           21.02665573280809       18.79961733272123       20.03675973374807
H           19.78570699208712       18.37224898373995       17.89077964937973
H           18.29037399428629       19.76491104435735       20.16652105591645
H           18.69441556726334       18.03015404020206       19.99062602973545
H           16.03747122574618       19.72594731426178       17.28006481784815
H           16.82957729950405       20.76528864195849       18.49281765686902
H           17.96093469321571       20.99792983834567       16.30442652882714
H           18.26363881960429       19.22921721917503       16.26610412549122
H           23.15454959072516       20.61155196610649       23.27363377264007
H           21.89235265044973       21.34597744424496       24.29936417477499
H           22.34842878310830       19.03434141188495       25.09285764558498
H           22.05298553268348       18.40371746222982       23.46361037631064
H           20.01624405679726       19.83032345100973       25.24904650748041
H           20.00735741407211       18.11126754221755       24.81902305524916
H           13.27495078995056       16.55032137109585       18.12331740442350
H           15.11803301547146       17.91220676490549       17.33676636074534
H           17.00871652931291       17.74480466115652       21.18333957561855
