151
 energy: -221.327114373590 gnorm: 0.007302624982 xtb: 6.7.1 (edcfbbe)
C            9.94391036909693       17.07450624077370       24.05046475568724
N           10.61532469898348       14.39919472827070       24.43339251508269
O           10.04387949805550       15.99284463356869       21.85062646182533
C           10.79631959536375       16.34802259299381       23.00908027605358
N           13.18469542988624       15.41792717479394       20.93785631300462
O           16.99538242509383       18.72212990480696       23.76698691367895
C            9.75510725586792       17.07829502076344       20.99834136558310
N           19.62078472631350       20.82195166741037       22.94920748055899
O           22.61073481358395       17.58817823161574       12.18702707196921
C           11.37725740679938       15.06834663628729       23.58070343320436
N           21.01397060059545       20.93749166438378       22.95764877842102
O           23.59957014550881       22.12433755153514       16.65860443379488
C           11.08329265343888       13.29611170771083       24.99062114066257
N           21.48631472214288       21.63775929244192       19.49216039234837
O           19.82861231194882       23.17033623947657       19.47499321873257
C           12.35523429624585       12.80251225503378       24.74568853046912
N           21.48246536203094       22.89616637248586       16.71590748243606
O           19.76334721046315       19.73475477629945       18.10290766148850
C           13.15446998116491       13.48795518595091       23.84894082142673
N           22.77677573301582       19.81222514870983       12.59691167330601
O           22.92736823222871       21.16859955468087       21.79751356957784
C           12.66664330422427       14.63929861876112       23.23313950665538
N           27.94185793253926       18.32564178936387       11.27526414375043
O           17.11824929658894       20.92711471898506       24.15352092692681
C           13.50683623898035       15.36746518100742       22.27624904299509
N           17.48546747814776       18.34717592568654       19.06543541923522
C           12.25422050655554       14.54077525539109       20.26947870395599
C           12.92369450054503       13.22657064970652       19.87216366269324
C           14.66013699442442       16.07967134260520       22.52151354325621
C           15.40215613879192       16.19040111884793       23.81667618320535
C           15.12559345628114       17.44179138241636       24.67776178877473
C           15.90293794700182       17.31295355462025       25.99069266156535
C           13.63339321627319       17.57186546090078       24.97660181233515
C           15.56953934606510       18.71658474750055       23.95051279472161
C           17.63731032971668       19.86105775026163       23.89908125559425
C           19.14106751106316       19.69717983808015       23.74580274944016
C           21.71340463634658       20.99432594732844       21.81445847810392
C           20.91578273569280       20.80249056625112       20.52179438943513
C           20.91704665655092       22.77537800968013       19.07889663462136
C           21.74288468764450       23.51015689981486       18.01553370152818
C           21.47735546491995       25.02535448346251       18.01991384131412
C           22.12937299474084       25.68637698644431       16.80775609430128
C           22.02954543828480       25.60864546730635       19.31845995230337
C           22.50177084521249       22.26732099822381       16.11660828081171
C           22.32543967352527       21.73354630461536       14.68520302565077
C           21.58514010687854       20.39475453126405       14.65908069962111
C           21.47451922883791       19.88827226727263       13.21921587301009
C           23.24656211967821       18.64243429057076       12.12783285880355
C           24.54838242301861       18.69248605522958       11.51214168003292
C           25.61076366708693       18.54664603227246       10.96436061469073
C           26.89113236228179       18.48639863574138       10.26111186879408
C           28.01050051402789       19.41485224896320       12.22975833188875
C           29.26053630892131       18.01834092926849       10.75951010189102
C           26.83558860044596       17.25519122848279        9.34353426989971
C           27.01985453107809       19.76176496495930        9.40031939623063
C           23.50632595632977       21.05709184052714       12.58236870129455
C           23.68881532834861       21.58108943875942       14.00752913447578
C           20.08807463230011       22.84580578993642       16.32812973095143
C           20.99592075860417       19.31925824953023       20.13379904207315
C           19.86841188593165       18.85185141063443       19.21010179995942
C           18.54273200727759       18.71516154116481       19.98072375206001
C           17.38427729630139       19.32496479283189       18.00303511628431
C           18.71077463506025       19.32872667974342       17.24794795535302
C           21.66871652994950       20.98514161303896       24.25617235858691
C           21.28515569172898       19.73383506854773       25.04213359167127
C           19.76369193774564       19.65743089504983       25.15611073823748
C           15.08600281508201       16.59337370003631       21.25904217930067
C           14.15617866681235       16.13877170592661       20.29669393403518
C           14.33373285577307       16.42888196957983       18.95015405445320
C           15.43209699433900       17.16956733510449       18.58221700863717
C           16.36148827738052       17.66144164461080       19.52304100269939
C           16.17655521757224       17.36960365577692       20.86690862640387
F           21.60337947669649       22.67570365456437       13.93237785288933
H           10.47716154787801       17.11459591020272       24.99877232757818
H            9.72476912887690       18.08999566607244       23.72651164097401
H            9.01471793459073       16.52505318456539       24.19122770939624
H           11.63094906731473       16.99248619850314       22.68756462293037
H           10.67799182445026       17.58179746720263       20.68409853343996
H            9.25596810957918       16.65219058830448       20.13097465790759
H            9.09323240737576       17.80566712839142       21.47600801981572
H           10.40245294636911       12.79843182324898       25.66874049573375
H           12.70666777140852       11.90951951544410       25.23676242188072
H           14.14853836708267       13.13858447852042       23.60906827898337
H           11.41003625486236       14.35193649734683       20.93446714765373
H           11.88047527965741       15.05569748118014       19.38140129721598
H           13.24783305396119       12.68682749846215       20.75880615504168
H           12.22363869567597       12.60488131327305       19.32211064323718
H           13.79185488207306       13.41869615124244       19.24624246133912
H           15.16385533151842       15.31892383772808       24.42958926098352
H           16.47090644122699       16.16851582136521       23.59321876320006
H           15.52636243157517       16.47400351845163       26.56953555188970
H           16.96020540653728       17.15199859138085       25.79350456759118
H           15.79625430486208       18.21811089062709       26.58540258327559
H           13.45430902038036       18.36999912417299       25.69271214636167
H           13.08364906956540       17.79585245923153       24.06799128667181
H           13.25088253407253       16.64192470937887       25.38936357864511
H           15.29532741306894       19.60768195343048       24.52422578683267
H           15.10808267269394       18.77654116692635       22.96140415161323
H           19.36123908539142       18.77047024651118       23.20824493111985
H           19.19623601721613       21.68004955960462       23.30865302449979
H           19.88583886969136       21.13457802106038       20.66989629013915
H           22.42012757723913       21.40496202737227       19.18620504329614
H           22.80652309055937       23.34552795253173       18.21717976255830
H           20.39748518288205       25.20102938177366       18.00247778623054
H           21.95775599380882       26.75905776583597       16.83120354260669
H           23.20273620677021       25.50519701255529       16.81682994074126
H           21.72422632951479       25.29363278463787       15.87829022898179
H           21.89318868630065       26.68464562917744       19.33636317760512
H           21.51319756925466       25.17914174683553       20.17439767828202
H           23.09105726748730       25.39149740884501       19.41092262827431
H           22.14842661054586       19.69141109562106       15.27359466475044
H           20.58889464877905       20.49860962385185       15.08276177510610
H           20.84872568562215       20.57836415537297       12.64174845302695
H           21.03407653020804       18.89028499167698       13.19303446308818
H           27.00665615994888       19.68689277167286       12.55298255345169
H           28.56738402144590       19.07177956318255       13.10084999071613
H           28.51256669165024       20.30867647049317       11.83080608145340
H           29.23591846683019       17.09501054117462       10.18818436027703
H           29.68253750363914       18.82014007231403       10.13520671859638
H           29.92207854983992       17.87142581126735       11.61111535362340
H           25.89176335772749       17.24939460089471        8.80314872827212
H           27.64608090191056       17.27937028165125        8.62017916557420
H           26.89931541141387       16.34732436608989        9.93698070827034
H           26.94230102064035       20.65652249783583       10.01479740741403
H           27.97881715518718       19.76509245182006        8.88398931735619
H           26.22387393830937       19.77949782784213        8.65740731514743
H           24.47573459044935       20.90345665087584       12.10933092043069
H           22.93748173926097       21.79210977821567       12.00146410293813
H           24.19269628959700       22.54793644665875       13.98820661307597
H           24.29082072731309       20.89572698248525       14.60371443944655
H           19.61241828143714       21.98649842687174       16.80673001657840
H           19.59386767912415       23.74416172169636       16.69049883633526
H           19.96381098559205       22.79540902386006       15.25309839369143
H           21.95779361681771       19.15409492535778       19.64682261193047
H           20.96412707332211       18.71034016494987       21.03717885219883
H           20.12471395829422       17.85022366260256       18.82152114448067
H           18.31580626742494       19.65899803355330       20.50235385036541
H           18.67546727744385       17.92107847758841       20.71354675985287
H           16.56834809133898       19.08795245387680       17.32633795328104
H           17.21888076736195       20.33140211671950       18.42230160363035
H           18.68528832250223       20.03963203628076       16.42123304733150
H           18.91771836152170       18.32074506364327       16.86104953960172
H           22.74193008296179       21.04011644265713       24.07296705449113
H           21.34541915170526       21.88635944046449       24.78819581209619
H           21.73533976315235       19.76691958758298       26.03158619073062
H           21.66037382623393       18.85261823362787       24.51961908395859
H           19.39078582779469       20.51095168067901       25.72846623326048
H           19.46266031713616       18.74186120824530       25.66291436688677
H           13.64389235403792       16.07377933307083       18.19907941281088
H           15.59746791358925       17.35551400143534       17.53291283121324
H           16.86030668465884       17.72511672617631       21.61841299200738
