151
 energy: -221.328842672165 gnorm: 0.007339209652 xtb: 6.7.1 (edcfbbe)
C           10.93531478999811       17.00153433866661       25.45686237221432
N           11.05038049895996       14.28968476687557       24.76764250514563
O           10.01129246078954       16.67614040893411       23.21282459211357
C           11.19234686340042       16.57831540133754       24.01043378831570
N           12.73088037024845       16.13542888479855       21.04329980203186
O           17.47349282286176       18.13810548564701       23.40211067995048
C            9.73357883372435       17.98458048623233       22.75660340386656
N           19.83683367314971       20.49456835893568       22.30864825481541
O           23.61995069832383       17.28657579068492       13.87016384117451
C           11.65929134429895       15.13572220837315       23.94962168231541
N           21.21785224457333       20.60962606149551       22.11600446667080
O           23.07261446872512       22.45090684028103       16.51188658553225
C           11.40987987607672       13.01900701003841       24.77410624804570
N           21.12787176187315       21.79096018867386       18.83741589957334
O           19.21276384044899       22.98759855685610       18.96090523357980
C           12.41412950635026       12.51039265569354       23.96606868796503
N           20.95288744801556       23.16169635222760       16.25366747633553
O           19.13398588930809       20.16602198132862       17.40909849031461
C           13.05695733412696       13.38642170842426       23.11130801056953
N           23.05202382790878       19.36849542839884       13.17618769422245
O           22.94282227524262       20.77088085446611       20.68028332865539
C           12.68285869311429       14.72916736116054       23.08225740376431
N           28.54747509513455       17.77053885259308       12.22022758605814
O           17.48844090417899       20.34645538917772       23.78704172072309
C           13.37381205687555       15.63054739287197       22.15143930271864
N           16.95131074062262       18.78891936666766       18.62451202151762
C           11.43601423631784       15.73251750323357       20.55760610395200
C           11.53055808454252       14.49176578022242       19.67190736216261
C           14.68851542417969       16.04224299677666       22.17097540382983
C           15.76257769202289       15.65467049248236       23.13858623440715
C           15.92126217909056       16.55211904174236       24.38523710655748
C           17.11523049195655       16.05085190243576       25.20384336722708
C           14.65931999435085       16.51014023630842       25.24442920029576
C           16.15900427885791       18.00796608047538       23.96442728485998
C           18.03024626508656       19.32798800384238       23.41351775770642
C           19.48888881977792       19.26276483980757       22.99993623966847
C           21.73613537571737       20.69643886726440       20.88240543490608
C           20.72564769155342       20.73463874776216       19.73353737954527
C           20.35402722122703       22.84162407794813       18.54450233713921
C           21.03293606567387       23.80964654993525       17.56348539619122
C           20.45330534337869       25.22812838358718       17.59182451531942
C           21.17222114822989       26.10983721748212       16.57392874389301
C           20.61981508908760       25.80065986183597       18.99962306094093
C           22.03377033657553       22.49349367959648       15.84403140412737
C           22.00827697775689       21.67135746930620       14.54936788008863
C           21.61519581774836       20.24139441692467       14.94326480618013
C           21.72518151310562       19.29794727436344       13.74559787783897
C           23.91723728614175       18.34542570380180       13.31718129733931
C           25.21334004945501       18.53980971941808       12.71915165142742
C           26.31118365097580       18.54436535769973       12.22252195951792
C           27.59209715641100       18.64077759347600       11.52542949009186
C           28.79664297741524       18.16766852611528       13.59305022309941
C           29.79552050754691       17.53385738317741       11.52274838631784
C           27.32740612837219       18.12735267109639       10.09928725604404
C           28.00741348463036       20.12802629330791       11.46346602674336
C           23.41748331906090       20.68611248923406       12.71322070339445
C           23.38226561254130       21.68494128873318       13.87299287167105
C           19.63485995944360       23.12235499199764       15.65414526743973
C           20.69396062297446       19.36464414401054       19.03468872175017
C           19.37790593607274       19.09046521236780       18.29878955941628
C           18.23228706345799       18.84074450614678       19.30054679978906
C           16.76637596251890       19.99839135888844       17.84451984981591
C           17.86833636617926       20.04018779188883       16.79230600180859
C           22.05182906077917       20.51707268906496       23.30198520083030
C           21.79279894805775       19.17751104798970       23.98871359095459
C           20.30356578463932       19.05208084120761       24.29472816662961
C           14.87513259047217       16.84562843707189       21.00294445545578
C           13.64119595217308       16.85078123726523       20.31423558882329
C           13.52291245812927       17.48895917373903       19.08725398011581
C           14.62914809114622       18.11933646623915       18.56985021362616
C           15.86434588358972       18.17426970912760       19.25294296774945
C           15.97342246222533       17.53192646469520       20.47911348280041
F           21.09571571532701       22.17632464138877       13.61980168419707
H           11.82313665301866       16.82149643680512       26.05477795892860
H           10.68547948216065       18.05612756373035       25.50741796639423
H           10.11555400901521       16.41162477512731       25.85340803490999
H           11.96652038844954       17.21876774727870       23.55630350401717
H           10.55077997056604       18.35550204358089       22.12707145244097
H            8.81976801853988       17.90503663579577       22.17399850141959
H            9.57558969372388       18.67964412860737       23.58431626048444
H           10.86719481597910       12.38724350984671       25.46342617298770
H           12.67562747498471       11.46508685223959       23.99087663219849
H           13.84073535265221       13.04617535724122       22.45134838609986
H           10.78129094172265       15.53401220330497       21.40893900654703
H           11.01575611098301       16.56476389408984       19.98786082483351
H           12.18751758987223       14.67821114563388       18.82638216989157
H           11.92600367908168       13.65307793807143       20.24049999757714
H           10.54470133590979       14.22801405094927       19.30204379957550
H           15.58042019485597       14.63589365857704       23.48897489615888
H           16.71193973514319       15.66351800265477       22.59871010783518
H           16.95963589925405       15.01847058279415       25.49642431670182
H           18.02700461547679       16.11086083143827       24.61806961920530
H           17.23959346222143       16.65121590838393       26.10206595726321
H           14.40790215824742       15.48281064137510       25.49498048327441
H           14.80554262386375       17.06497541831244       26.16787661276028
H           13.82569955190798       16.94815550929874       24.70614362067152
H           16.08628968952004       18.68623900865153       24.82007705607206
H           15.42838560112604       18.32082182877088       23.21351599215953
H           19.64884941688758       18.42515799114388       22.31547955297697
H           19.48662257530531       21.28989875599035       22.84454287852882
H           19.74165154998120       21.00494259904151       20.11866124151449
H           22.07389601045385       21.74446837399410       18.48009400065267
H           22.09721057267853       23.86587625704383       17.81544921047805
H           19.38589919168880       25.19294795598209       17.36372441133757
H           20.77392973505814       27.11972320125252       16.61010740936526
H           22.23516045599622       26.14817333019131       16.79959986402055
H           21.05251323346845       25.72844827160631       15.56417402703761
H           20.24952545095810       26.82090504029405       19.03259319022196
H           20.05911136209961       25.20719731041977       19.71742022877628
H           21.66820137425466       25.80051390665608       19.29043692844402
H           22.30695870769689       19.92521163872426       15.72618387253556
H           20.60529667647881       20.22076015646097       15.35433845349851
H           21.00104016013386       19.58841907743609       12.97865746475929
H           21.54221847827377       18.26864940353341       14.05600005609710
H           29.46302743297476       19.04096484953113       13.67409524223875
H           27.85228219245574       18.39312194455185       14.08718853713892
H           29.26623858046905       17.33318135170333       14.11396738409293
H           30.38677702324356       16.84897414465088       12.12850182558620
H           29.60650993085853       17.06003553600956       10.56422941409477
H           30.38894151210321       18.44763281778121       11.36537189486183
H           26.43986041960758       18.61225179858036        9.70092987251977
H           28.16686933513419       18.35427475850510        9.44908411878641
H           27.15845420152026       17.05424850878559       10.11998767034780
H           27.27645410413778       20.68832922963090       10.88759145570329
H           28.06658703736319       20.55809585317185       12.46059044928622
H           28.97683882593022       20.21963092528629       10.97898979440570
H           24.41603591183422       20.65040139566632       12.27936500144868
H           22.69906661214079       20.99559064140148       11.94745838450098
H           23.58285646948768       22.68916567384161       13.49891476027542
H           24.12944524418384       21.43586005210503       14.62524989794603
H           19.46813518521764       22.18603242664396       15.13327995361082
H           18.90144131096681       23.20271550862041       16.45287097650144
H           19.50311017090402       23.94667333537040       14.95301213743197
H           21.52184049116378       19.32707693622195       18.32563835007190
H           20.84462075128803       18.57650495359558       19.77228826207356
H           19.48989230433998       18.17177673349700       17.69672561039428
H           18.23098459112749       19.62134863752572       20.07704942707098
H           18.43037219311500       17.87500487539109       19.76543553472511
H           15.79664922424562       20.01617547949056       17.35736449966381
H           16.86017746490950       20.89213287141206       18.48299397832648
H           17.75528056057282       20.90820759036223       16.14451864411792
H           17.83587509660061       19.11765181680281       16.19621119510293
H           23.08785958941463       20.61522501022226       22.97923840183146
H           21.79676336062782       21.34410718377244       23.97186679317494
H           22.37281858900672       19.11916235917102       24.90769300817936
H           22.10678902749777       18.36936843790910       23.32632194146573
H           20.00975946795332       19.81560801432202       25.02020175528590
H           20.06915339395800       18.07369926970202       24.70862951441248
H           12.59976972949090       17.48467959687281       18.52809268270989
H           14.54223251441510       18.56812794978393       17.59361020734286
H           16.89065275571058       17.54255329640023       21.04433293073263
