151
 energy: -221.327780305235 gnorm: 0.009670781083 xtb: 6.7.1 (edcfbbe)
C           10.45421889698055       16.32548254264503       25.29732243366502
N           11.25465347315322       13.68500215642113       24.77524991713641
O            9.71562741524891       15.57309188976798       23.07396873408992
C           10.84620859444300       15.88381086675519       23.88740488628841
N           12.66049445157981       15.93088734589365       21.13451214627478
O           17.28658885830406       18.27436746336178       23.55553920148424
C            8.94568195431864       16.68843694039387       22.68288671778176
N           19.79390097228618       20.42454625287381       22.32098956801784
O           23.11868978967193       17.35114484772901       12.78362728685207
C           11.67799618585008       14.61621995682124       23.93397849123495
N           21.16476698781415       20.43501544782871       22.04316868022957
O           23.62977554792673       22.47755644782791       16.38890719257279
C           11.91525597471018       12.54435265880829       24.86884221555876
N           21.17497844631678       21.93539827651689       18.79120209507871
O           19.77729612041379       23.69072848341364       19.09209833041468
C           13.04447550474348       12.25977576290171       24.11871486577052
N           21.49615300063002       23.19048032766697       16.25335544062490
O           18.49876611970517       20.95109907470951       17.90507573069389
C           13.49541889904449       13.22756479206383       23.23928471814312
N           23.14780480003984       19.61678022483003       12.69695057010117
O           22.82323453053761       20.77569088276751       20.56786663389168
C           12.81365753812134       14.43929196166813       23.12941044846760
N           28.48766553049695       17.89979469116069       12.47287706107084
O           17.54621814809873       20.47529451095858       23.89099810191268
C           13.34672894011119       15.47284012420300       22.23676205155244
N           16.44671008877363       19.38264452139297       19.05545948085333
C           11.53479314242661       15.26623332070903       20.52605915672456
C           11.99427912178803       14.15162307611295       19.58636014485726
C           14.56194786534012       16.11346132027472       22.34587820759630
C           15.60350150345431       15.89632104160617       23.39518952318397
C           15.57986110209703       16.88624338929200       24.58113483944403
C           16.58505657219725       16.41267003464448       25.63491132330493
C           14.18396694687620       16.95686925773162       25.19913037148011
C           15.96282724120559       18.29460826733013       24.11601602614186
C           17.95779040419625       19.40146066848270       23.50439577611582
C           19.36281415219375       19.18978190011151       22.96162121703443
C           21.62371175092866       20.73561500264776       20.82147972968216
C           20.58291519560059       21.01776506245051       19.73620412331918
C           20.75943622539895       23.18972157803094       18.56813613448810
C           21.64565877199485       23.89688238816873       17.52848196181126
C           21.37574411686193       25.40506913011685       17.39272468852064
C           22.25434587304883       25.98959925110429       16.28533484448950
C           21.65696804214523       26.10551507125505       18.72169333704205
C           22.56312333038283       22.53716468775273       15.77498780706447
C           22.47962585302075       21.83456666591330       14.40371332104919
C           21.77962715297874       20.47848433635100       14.52701096874778
C           21.79309337473822       19.74838760600417       13.18159218155192
C           23.71893047529952       18.40601785410912       12.56831669427959
C           25.09464408213584       18.41055431228039       12.13773243118150
C           26.24211766040781       18.26439924530665       11.80483098733099
C           27.62333286505022       18.21536349050334       11.32925280700531
C           28.34886189646102       18.80327228011780       13.59588945333611
C           29.88504462170863       17.69811090369922       12.15397690026699
C           27.68958711501346       17.08461112228560       10.28759403197959
C           27.92640758972328       19.56993605289118       10.65202405120190
C           23.82610429024850       20.87571612375943       12.50666891216840
C           23.88630524334472       21.65363636456512       13.82297823659717
C           20.13016198151000       23.06448531471888       15.78289107326937
C           20.22068084511058       19.70056577283370       19.02527151559990
C           18.78838586794638       19.68544021798611       18.47760718911698
C           17.78904718715090       19.30895925357945       19.58428050634921
C           16.17190983720878       20.71959614288190       18.57266615544425
C           17.16171508354129       21.03035962044562       17.45132191974792
C           22.06576517314472       20.13506570494413       23.14596490945505
C           21.71579605010125       18.76161474311242       23.70993794334274
C           20.25399199106615       18.76804127148132       24.14999497725489
C           14.64327846330406       17.00746111704549       21.23624246363048
C           13.44642881381726       16.85581384574145       20.49899877498297
C           13.23072255703547       17.59559081940403       19.34218900051000
C           14.22131216275865       18.45004559905945       18.91711357944611
C           15.43637302282726       18.59809650463572       19.61764640293138
C           15.63332113208049       17.88178064703458       20.78781357938207
F           21.77424115717578       22.64393007685796       13.49884396156338
H            9.92796823878541       17.27496601649603       25.27071881697366
H            9.81849771993060       15.56625936699102       25.74182358996130
H           11.34897074375491       16.43757242664392       25.90025954383044
H           11.42345008002430       16.68298178778680       23.39317616611610
H            8.40954668049675       17.12744777879288       23.52836675296471
H            9.57746856352093       17.45337454092067       22.21701781231033
H            8.22780576722256       16.31262855353495       21.95688216183053
H           11.51478807371243       11.83621182205316       25.58267959798889
H           13.55287205762996       11.31440176161593       24.22112700718425
H           14.36762285236295       13.05146529230775       22.62606713861011
H           10.89994751075824       14.85033877266756       21.31143531957226
H           10.95862760422619       16.01011599660636       19.97068151963251
H           12.53256226691111       13.38883636181593       20.14432256130405
H           11.13399153850984       13.69154892970286       19.10934017713900
H           12.65388635244871       14.54980168724001       18.81879383563361
H           15.48470057209770       14.89224955395597       23.80667248176292
H           16.58747836072193       15.95770522343937       22.92776223924619
H           16.30085593486702       15.43420179028595       26.01165492916252
H           17.58127221248855       16.34194499379993       25.20464033747689
H           16.61513271147024       17.10777447440622       26.47023253828398
H           14.18364385229235       17.61724888280330       26.06104095374052
H           13.46540426300998       17.33218522120489       24.47557729875876
H           13.86780078270236       15.96708474311333       25.51663433497526
H           15.95308950579626       19.00308760100766       24.95009547069838
H           15.27174040851724       18.65265890388232       23.34746860444473
H           19.35100867959411       18.39193170029457       22.21280571466858
H           19.54339792730032       21.21012286430713       22.92310688922047
H           19.70074893183278       21.49967648035544       20.16060433152425
H           22.08061835918411       21.65169596036097       18.43991364817736
H           22.69107085942052       23.76374679835535       17.83187931544562
H           20.32080127897046       25.56417074636430       17.14747463518490
H           22.05711607128062       27.05274638044968       16.17393856447513
H           23.30840314031231       25.85373530554929       16.53267633797315
H           22.05931834866659       25.50873431922533       15.32973622318139
H           21.52921989719546       27.17860288121484       18.60481413206181
H           20.96596138387489       25.75631329873923       19.48585616354239
H           22.67535808708727       25.90948559977970       19.05346231799478
H           22.32243971172736       19.89480247690419       15.27230464189575
H           20.75057300969488       20.60420727412506       14.86147823060061
H           21.20969971989256       20.31678263567526       12.45034530503751
H           21.37293661919873       18.74635929225041       13.28372155528362
H           27.29903454442090       19.00600912333923       13.77812740799562
H           28.75906012453902       18.31765153413830       14.47666984901127
H           28.87606984679595       19.75536688030544       13.45627423708212
H           29.98866580838611       16.96093719084311       11.36771600652190
H           30.39846332988198       18.62155135837218       11.85666344657561
H           30.37908304131183       17.31399796101572       13.04377161954298
H           26.80715050468949       17.12153894378137        9.65242112459848
H           28.57151083342064       17.18580533627366        9.66054824636380
H           27.71096523174535       16.12375965114254       10.79692585871195
H           27.82694767431176       20.38638668268728       11.36448861587415
H           28.93642779610552       19.56815734527580       10.25017089290610
H           27.22562499451660       19.73457134641986        9.83803746081907
H           24.83221077538184       20.69234630403341       12.13234602835119
H           23.26984859278875       21.46279219775281       11.76753897058143
H           24.32969495150611       22.63691838121080       13.65261204681642
H           24.49417278356182       21.12949557877401       14.56384372502096
H           20.08295632439749       22.91227095356539       14.71063326098980
H           19.63012171900911       22.24430094647113       16.30728808784292
H           19.59966368113272       23.98423848631388       16.01880838984873
H           20.93042349937601       19.56223329125193       18.20946086031384
H           20.33270786822705       18.86464359475691       19.71440984336546
H           18.70736126274470       18.92078316293965       17.68511407146742
H           17.93120830279546       19.97621710300263       20.44932305426753
H           17.99671436177107       18.28033249006458       19.87806001231236
H           15.15204205044948       20.79240224233985       18.20062724660544
H           16.30790074339383       21.45884792239793       19.38069243076141
H           17.03257692075032       22.05192224074470       17.09151366363512
H           17.01008919140232       20.31782759606270       16.62744303347091
H           23.08035109641052       20.17017229925341       22.75186481272601
H           21.94786650152425       20.90403349422994       23.91594943081767
H           22.36230220612145       18.53248134143420       24.55607905827280
H           21.87174677951763       18.00588839475400       22.93799402211140
H           20.12075221276201       19.48047802090895       24.96842776806862
H           19.94703678701155       17.78184844269111       24.49435321050233
H           12.31899106810754       17.49881699521804       18.77368477999129
H           14.07376436100366       19.00005240953297       18.00080127323321
H           16.54232887586937       17.98204035090631       21.35430981598085
