151
 energy: -221.329666794440 gnorm: 0.009892818306 xtb: 6.7.1 (edcfbbe)
C           10.04309253864516       17.47159147873357       24.17854044262447
N           10.49642273054530       14.75863375985870       24.55724853495425
O            9.97452645301073       16.36313124413123       21.99819717707686
C           10.80095398748447       16.67454473401049       23.11822694631641
N           13.11278302920227       15.54872434255851       21.04094687114751
O           17.05779406116439       18.65325975247023       23.81578223918174
C            9.81387727213774       17.42283536883642       21.08226780855504
N           19.66666485011077       20.79775511461875       22.80512331788773
O           23.62606725615324       17.09868982054871       12.81808642859141
C           11.30022761536054       15.36078246928749       23.69373601490889
N           21.06093192312058       20.87898577292576       22.83063262855947
O           23.25840164170238       21.81396761813462       16.82110229405679
C           10.87884942218993       13.62677359815585       25.12203181825699
N           21.42959701926769       21.62846398898569       19.41782322118372
O           19.48043822316896       22.75735071953373       19.20826385728666
C           12.10149091031651       13.02712511055741       24.86390048916078
N           21.20286129748499       22.69875350385635       16.55455744123226
O           19.71350679093542       19.72546966515343       18.03797062302376
C           12.94462257547132       13.64353274127815       23.95743845783339
N           23.19616398345096       19.32270295332707       12.92022823394750
O           22.99265353294578       20.95862729690917       21.67906850824155
C           12.55155935292841       14.83114611803694       23.34221364525733
N           28.30370761407799       18.03726982997933       10.42787211362539
O           17.08663253209789       20.89321858743357       23.69735790040258
C           13.44378585671071       15.47990974425855       22.37512633350766
N           17.52326551527660       18.24687720911867       19.06685793049105
C           12.08482574448447       14.76890380761986       20.39779003316120
C           12.57071801913136       13.35346668812068       20.09019656890812
C           14.65793233473751       16.09154064861433       22.60020183449245
C           15.41538881140577       16.14643537755606       23.88907632212894
C           15.20095419595053       17.39560048490093       24.77009188326227
C           16.02992104292566       17.23568314876240       26.04782323929678
C           13.72726318753126       17.56547609469968       25.13335562931548
C           15.63833094074659       18.66293654469253       24.02960205220160
C           17.65503296214421       19.82092303446497       23.68686528553975
C           19.16274401249753       19.67710406004311       23.58798768438256
C           21.77084941788640       20.85843916187405       21.69184348435827
C           20.95586086681445       20.69174550825630       20.40672707005701
C           20.65246550284311       22.58296544604735       18.89633622940981
C           21.35722161346208       23.41754969525153       17.81895114816740
C           20.84190418491509       24.86181426650476       17.74079352950248
C           21.58497920457074       25.62813721565484       16.64803414024897
C           21.04233436459553       25.54463625097338       19.09245182978524
C           22.24098753700270       21.97010543332745       16.13438487911434
C           22.21802282483493       21.31196788295811       14.74938884141748
C           21.82517874491551       19.83753510055034       14.88425519484232
C           21.89512846756899       19.14448964809191       13.52347374886757
C           23.95743460609918       18.26243807296183       12.59039595970964
C           25.17462689283420       18.58418041842057       11.89187629410482
C           26.17008479102176       18.72917533517484       11.22867377861773
C           27.31638909712322       19.11946142887696       10.41158934195888
C           28.72254188523377       17.64123106960939       11.75605662770398
C           29.44956871571473       18.23363559591148        9.56412177277300
C           26.77129122699122       19.31662602358790        8.98530721914988
C           27.82519618992472       20.47160574671216       10.96188899561571
C           23.58765295480246       20.70126419070011       12.74266635568105
C           23.59583280134616       21.42542731405075       14.09006927145732
C           19.86985693309107       22.70425660866735       15.98655732471600
C           21.09192791592212       19.23657598643505       19.92747201412022
C           19.90850709870805       18.77279789689076       19.07079055545961
C           18.64660338138074       18.54473633344670       19.92877458223908
C           17.33236954026007       19.33635621414836       18.12918465159986
C           18.57879309927754       19.41686382458458       17.25554736951311
C           21.69104586979200       20.93333688120423       24.14169698457737
C           21.25718335339456       19.71552536908258       24.95744392295571
C           19.73149692006244       19.65674473361278       25.02168805856517
C           15.10641990390634       16.57201899166949       21.33135800269576
C           14.12718280641215       16.19026520474307       20.38556606647127
C           14.29679750066135       16.46949408379547       19.03475539186877
C           15.42560797202478       17.14980994438377       18.64974843154999
C           16.39730713346005       17.58675092893624       19.57547625590102
C           16.23883504296895       17.28048492175142       20.91749828850453
F           21.31691488794765       21.95803259491561       13.89536704138315
H           10.67929231706367       17.62461471523602       25.04392182046639
H            9.73984297241325       18.43861223898346       23.78693860388541
H            9.16603343560154       16.90722529016828       24.47518343591142
H           11.66747804500163       17.25028953423834       22.75497207811476
H            9.29189973039456       18.26901722462442       21.52867668728322
H           10.78479167595061       17.75871072909572       20.70565535000499
H            9.22102219935159       17.02401007599581       20.26355672696796
H           10.16837302582574       13.19187270636955       25.81043121186790
H           12.38014294631663       12.10679417475789       25.34947462316575
H           13.90360118751691       13.21097778283699       23.71075770703129
H           11.20900600332201       14.73146938406845       21.04860804629696
H           11.80237628431209       15.27704650900725       19.47405220344391
H           13.42882667457167       13.38321525667339       19.42162684857128
H           12.86343397623131       12.85021416469387       21.00999663843456
H           11.77174684655124       12.78440448661717       19.62043516675681
H           15.14751425359433       15.27589198227604       24.49237653462743
H           16.48024447514289       16.08284202180964       23.65618573607135
H           15.63527399561294       16.41959255708352       26.64613956744567
H           17.06493828230661       17.01569726333765       25.80269372683864
H           15.99874303943188       18.14535573340408       26.64098273467459
H           13.61209517048467       18.35304551314047       25.87582024866407
H           13.15349292343326       17.84216309112219       24.25093546661166
H           13.32380331664126       16.63876536666615       25.53761340482889
H           15.39016069811570       19.55792378657749       24.61161906987701
H           15.14372645667261       18.73622822418985       23.05598551742778
H           19.41943239268493       18.74745962525233       23.06858702583479
H           19.24880225233797       21.66454793100597       23.15319455739550
H           19.91316898788012       20.94907378922657       20.60220296856878
H           22.38283106819473       21.52483595556370       19.09519553557621
H           22.43076946947796       23.43751390466124       18.03522577814185
H           19.77101748876768       24.84791826427658       17.52329212177776
H           21.50450591712878       25.12896056737802       15.68612817556104
H           21.17437077076052       26.62842466750907       16.55195741179303
H           22.63985802483475       25.70979680098042       16.90171007419526
H           22.09062338371571       25.52213727857261       19.38208986078800
H           20.71991372991823       26.58042998314403       19.03435126245689
H           20.45738343781854       25.04512239905875       19.86053625655472
H           22.52347368905058       19.37741875491374       15.58403666545297
H           20.82005586546479       19.74675210672257       15.29508197581342
H           21.13909045387873       19.57580533204860       12.85838829695480
H           21.71760988024494       18.07265646310378       13.62860138308614
H           29.40002847043432       18.36577387496810       12.23355160328229
H           27.84747532200748       17.50512452609684       12.38944003924638
H           29.24504261733809       16.68772825016049       11.68111173110153
H           29.12336735751342       18.43052801265566        8.54703575232031
H           30.11276491684632       19.04758411108694        9.89541328750463
H           30.02507055070402       17.30927548793444        9.56139554233703
H           25.83060409873948       19.85792547875761        9.02660076805944
H           27.47076181064283       19.88740517239070        8.38167146383155
H           26.59671334987323       18.34877342619213        8.52513954129527
H           28.10393640851964       20.38177863258849       12.00906062436488
H           28.68699327094412       20.80687165359534       10.39025278505750
H           27.03889588800136       21.21505869851102       10.87479311241369
H           24.57758560059037       20.74038336503282       12.29004964455538
H           22.86702682599643       21.18913248845721       12.07683700125346
H           23.83818419055508       22.47822701064348       13.94136073258891
H           24.33263793353164       20.99086760991530       14.76505196284320
H           19.72469485168281       23.56422885145642       15.33584931371583
H           19.68683324181702       21.80054778929271       15.41814736429502
H           19.15676970434979       22.74608630420050       16.80768660076336
H           22.01292704397483       19.15884780586211       19.34749412234509
H           21.17570697692371       18.57380851142791       20.78851398615504
H           20.16277744160156       17.80608601958157       18.60099480235112
H           18.45067008957881       19.43447187744329       20.54936495616664
H           18.83963756194155       17.68850304877838       20.57584373974838
H           16.45107040373910       19.17414160920892       17.51489397276658
H           17.22043139160922       20.29479087915455       18.66467766889143
H           18.48589928886920       20.21861213402735       16.52397391397327
H           18.72835735469166       18.45442829457757       16.74471691354962
H           22.76945093470735       20.94837266770972       23.98030835991929
H           21.38446099021552       21.85871774820427       24.64151100518471
H           21.67125280705985       19.78645319740610       25.96249323412587
H           21.64071310666735       18.80957509601287       24.48487630350832
H           19.34708790726558       20.52342449453597       25.56635679194351
H           19.40000267237794       18.75155041290791       25.52991808458030
H           13.57479551730271       16.15504399246245       18.29715248812480
H           15.58318009611775       17.33589853338875       17.59926576206444
H           16.96917677471929       17.58259454126764       21.65030405374762
