151
 energy: -221.330022841230 gnorm: 0.003966500183 xtb: 6.7.1 (edcfbbe)
C           10.25185157254993       16.72262615860813       24.25109968558939
N           11.04885797822158       14.05447471474790       24.26243670033984
O           10.25766167399437       15.93939925854159       21.92857952527936
C           11.06604524956386       16.17035412916415       23.08263383372556
N           13.30491096198078       15.52848440100414       20.72180282865279
O           17.25844044182540       18.66593460719616       23.36424315570576
C           10.04909781144028       17.08426396749832       21.13209788600773
N           19.98507323332047       20.65657741016907       22.77361169061610
O           22.30631321343493       17.37163793222430       13.10058332054105
C           11.72439844035387       14.85416952382808       23.45148382940634
N           21.36958379141803       20.64380047796154       22.57116891121767
O           23.23920731879801       22.32416102226872       16.88056204805009
C           11.58652570393394       12.90532550069416       24.63279733305851
N           21.44176181159001       22.12093337365731       19.34914457239704
O           19.63212850215036       23.48051499566863       19.40279783115574
C           12.84829434120789       12.49395240184153       24.23372593017902
N           21.27061737090949       23.39502285136449       16.66585198748270
O           19.27204756984917       20.66517643077554       17.91567848814741
C           13.55956557240517       13.32016159317889       23.38181925616161
N           22.50580657328695       19.62902659274324       13.12953028414307
O           23.12151417073717       20.92996516479940       21.19444720881311
C           12.99498618509833       14.52115946449061       22.95835047723385
N           27.63048781320692       17.62531003363110       12.22205145901137
O           17.73157165764479       20.56766825334421       24.46016687731082
C           13.72896051495483       15.38271075854301       22.02367721334439
N           17.25960216584780       18.88094381454318       18.79381101272164
C           12.35715571370036       14.66959972974454       20.05573331669675
C           13.01385305232942       13.36256824762228       19.61441419634405
C           14.86753924456504       16.12432634508918       22.24569384672454
C           15.68149079248767       16.17327129863890       23.50040418312107
C           15.46272853944404       17.38774587782290       24.43126746106655
C           16.31644733971950       17.19747820814015       25.68828973792828
C           13.99289826778522       17.51559157534690       24.82706537103444
C           15.87057375737747       18.69281512734461       23.73378813638613
C           18.05783634713372       19.62084792297048       23.77554698628410
C           19.49254712416919       19.39413983955081       23.32055392390684
C           21.90823459762525       20.88393462494318       21.36576034928440
C           20.93874454508217       21.06651633417165       20.19731351669811
C           20.75359002608307       23.21017454596984       18.99562928267501
C           21.50199380679176       24.05604323553721       17.95312059204072
C           21.10219398826998       25.53614099562814       17.95443679356764
C           21.85425615522639       26.29622060003738       16.86361059345545
C           21.41904364924472       26.13529912296734       19.32395221401222
C           22.22246219341940       22.56955027091951       16.22377938312682
C           22.06192351766715       21.87254293769946       14.86717956500200
C           21.33373704941654       20.53905739296477       15.06188958248700
C           21.20063167537153       19.82013776488989       13.72056777034265
C           22.96216003485086       18.39099283411405       12.87304238827932
C           24.27547097234813       18.31430600308082       12.28775404445979
C           25.35190029945893       18.07986610234312       11.80173978488723
C           26.65361016884457       17.90417137311592       11.16107435837123
C           27.73981573554977       18.67861557475828       13.21126644187824
C           28.94116966326378       17.21309027150274       11.76624655955499
C           26.51852503592439       16.69512055239792       10.22205277431057
C           26.95035072242531       19.17233581694982       10.33206902641463
C           23.24913724046538       20.84682467315746       12.90791707573620
C           23.42484169838055       21.62148182197737       14.21677597026898
C           19.94844268994713       23.56794069599388       16.10085236955608
C           20.89767851932926       19.73294822370983       19.42552983618966
C           19.59968012841933       19.49609247411677       18.64807798591027
C           18.45739197917162       19.06176154700909       19.58243528991039
C           16.91220613078157       20.12526840990128       18.13670565009566
C           18.05928111396838       20.50296826333543       17.20377305196515
C           22.19297834673682       20.30493581298397       23.72098594012497
C           21.78993798910664       18.91790853436824       24.21739796474189
C           20.29862007177863       18.91301346900259       24.54333172130463
C           15.17589449189099       16.75989632198886       21.00402391845730
C           14.18551951497312       16.35625495792766       20.07940768151377
C           14.21481362648190       16.80374793158353       18.76308033072285
C           15.22738121435218       17.65329425771154       18.38619575783549
C           16.22624352243080       18.07073099184867       19.28869966792278
C           16.20246170886128       17.61232359930010       20.59389079841309
F           21.33509413576865       22.68195355778584       13.98428348928781
H           10.89390364111022       16.83523512187028       25.11892894477497
H            9.82813143168826       17.68852480822945       23.99607749800181
H            9.45456573393833       16.02546799931158       24.48781868392019
H           11.85742540344279       16.88276235157152       22.80469359821868
H           11.00613578909037       17.52246891770119       20.82299499893554
H            9.50240835967337       16.74434113444578       20.25561176849027
H            9.46068338083367       17.84272801513342       21.65591060431240
H           10.97504820677078       12.29780195536474       25.28588829987525
H           13.25572409985887       11.55543891178612       24.57292747176082
H           14.54304386691727       13.04155125845024       23.03124849891078
H           11.52386227510296       14.46583476110541       20.73160865764719
H           11.97036561641050       15.20557697977487       19.18676782491896
H           13.86509332352512       13.56812430007400       18.96998122275397
H           13.35972912795028       12.80337566027796       20.48025165266793
H           12.29822434770404       12.75334858210602       19.07055886051877
H           15.47119502996734       15.27553527158946       24.08542503217493
H           16.73635860604716       16.15786272608917       23.21768732882508
H           15.97967995502608       16.32586584228579       26.24260706818079
H           17.36224892281233       17.05584632875973       25.42482090166541
H           16.24035997043061       18.06897729571545       26.33515728021315
H           13.86916678038549       18.27556798070505       25.59441616666554
H           13.39221071638343       17.79671059599675       23.96725240753370
H           13.62350340687081       16.56849856376552       25.21156418144954
H           15.70337741361685       19.55148829415706       24.39027778430820
H           15.30286089310729       18.82173311799067       22.80949739635253
H           19.51823050992524       18.64278284606281       22.52599938857725
H           19.74196769524292       21.40602569242061       23.42512618665352
H           19.95146270030525       21.36599476779934       20.55072578449750
H           22.36829257975491       21.97324253422665       18.96656534852827
H           22.57698438382159       23.98286667583265       18.14850290618723
H           20.02558474881149       25.61791892311945       17.78902876877208
H           21.50180813711689       27.32438306194186       16.81815668920553
H           22.92118351838928       26.30731344201223       17.08220068736081
H           21.71440448960608       25.84092646687084       15.88651272668822
H           20.82638148714257       25.65177079525242       20.09637662846720
H           22.47270159017081       26.00740564458751       19.56199773102844
H           21.18902055880680       27.19690738899739       19.32630851031367
H           21.92986798239204       19.94001034415490       15.75210015084874
H           20.35256963384099       20.69250109196046       15.50806727552225
H           20.58528194086169       20.41914534977721       13.04101406641125
H           20.74622352859267       18.83650706503953       13.85175999285880
H           28.31972780922132       19.54555781192444       12.85954122000215
H           26.74597323183598       19.01181207545870       13.50334135668109
H           28.23816707745949       18.27179521179082       14.09133215514910
H           28.86274550005527       16.31975147954415       11.15363233029193
H           29.47413918956516       17.99397854865390       11.20296428263846
H           29.53512423149109       16.96835485952049       12.64572581203661
H           25.60185064604797       16.78760342661124        9.64458012748878
H           27.35610793655005       16.64696158954361        9.53259056830810
H           26.46921338907998       15.77982286996762       10.80505846702735
H           26.95434232279380       20.05656014298533       10.96481912852539
H           27.91683696868052       19.07928696353391        9.84383390738640
H           26.18502521995046       19.29587761454519        9.57077876305456
H           24.22260733524818       20.59995761552553       12.48455601043855
H           22.69586473475372       21.46997215632278       12.19657189685624
H           23.90709416073842       22.57811006616990       14.01338644313568
H           24.04337236864181       21.06862875700806       14.92286007494760
H           19.90472871084557       24.45946246167061       15.47479411264284
H           19.65992349822520       22.70967060290772       15.50521674855044
H           19.24298787166256       23.66578402110415       16.92461754082323
H           21.74350191097791       19.73156356525421       18.73486262357594
H           21.03331691325113       18.90319464049211       20.11874087665585
H           19.76279912226055       18.67362163525499       17.92913079390153
H           18.32243196809744       19.81748284536899       20.37394690807155
H           18.73417312903135       18.10774055540558       20.03138583106618
H           15.99130520302257       20.01253468255717       17.56873178058866
H           16.77922236165690       20.93346672754273       18.87694670275828
H           17.86287844539004       21.46092409913000       16.72216307460953
H           18.18024371182264       19.71447506227059       16.44588954318314
H           23.23249002190439       20.33295785487110       23.39515450498514
H           22.03604186368621       21.05316478235535       24.50452080448749
H           22.36749169537419       18.66281222822550       25.10410844358565
H           22.00429342481972       18.18268238902211       23.43993337073249
H           20.09811337986074       19.58768258104008       25.37929390497936
H           19.96921922417456       17.91207172698050       24.82041416359018
H           13.47417668772804       16.48989696612465       18.04319613065448
H           15.27689132712405       17.98871662055155       17.36185061576957
H           16.96265284538804       17.90424299598211       21.29648597927732
