151
 energy: -221.329604993502 gnorm: 0.008504941406 xtb: 6.7.1 (edcfbbe)
C           10.86953905476626       16.44794091942170       25.01668103578369
N           11.30611773355503       13.79898031933496       24.25991290464565
O           10.32944854096847       16.23875210139834       22.63244373465946
C           11.36837443742001       16.13007077467271       23.60756821080795
N           13.04810997406516       15.92134603574568       20.76534681730222
O           17.70270494260818       18.04061214102943       23.55108643302754
C           10.05257176361268       17.56202206313805       22.23375866342200
N           19.93401143741284       20.54257011271443       22.31630931664980
O           22.83312680324495       17.38262482106546       13.98896388317798
C           11.91748412935193       14.71783111282138       23.52853908939880
N           21.30687282739448       20.73085125396522       22.15082371237749
O           23.04858336764355       22.68096338053362       16.59239682213650
C           11.75294582656467       12.55521775675943       24.24451837136162
N           21.22744170152013       22.37369571667568       18.97189627014495
O           19.40991446725075       23.71348208885190       19.14496318499424
C           12.85637705939463       12.15510366028437       23.50758158659303
N           21.00475037832991       23.58824411501648       16.33795201527769
O           18.99492402505706       20.95301217858923       17.72795971301044
C           13.49895148549075       13.10616336287582       22.73451024575371
N           22.59050540208825       19.52795149067194       13.29653511199098
O           22.99193528963676       21.39046065618560       20.81982635638784
C           13.02514136716322       14.41555014664456       22.72226125441948
N           27.70180142130241       16.83880529829387       12.42924071870282
O           17.44038447599393       20.24478304077591       23.26393963035803
C           13.68329817389668       15.41887028970866       21.87723932831020
N           16.98282511916460       19.29308302713564       18.83501810467765
C           11.88452399837978       15.34784115849616       20.13820683984320
C           12.27406421427062       14.24270340586275       19.15652294406344
C           14.93218316471919       15.98306763677421       22.01701889480774
C           15.96860441815567       15.61769990562272       23.03408139553908
C           16.02074504198736       16.46421096585804       24.32390463034473
C           17.10653167183296       15.88904689759821       25.23743920453044
C           14.67762409947047       16.44304543559307       25.05531962988810
C           16.34177764173560       17.92566948574689       23.99655473683311
C           18.12702753694227       19.24633990095490       23.23641669167130
C           19.60449111976692       19.24307889081364       22.87976164929986
C           21.80085548464753       21.15837761414792       20.97957267137804
C           20.78747634100586       21.31566903533185       19.84599840573112
C           20.50928105070198       23.46128194731175       18.67383520257802
C           21.19249149038195       24.31918879354185       17.59304002074026
C           20.70323932131375       25.77106768592961       17.54280658152512
C           21.37876496678373       26.52377065416460       16.39837587394236
C           21.02861294968406       26.44875485553623       18.87357086962062
C           22.00413973187936       22.79706563626134       15.94195189519574
C           21.87290959459189       21.94534151700510       14.67320424161801
C           21.29825626113351       20.58042752059567       15.07057055531092
C           21.26506511368015       19.64656082868689       13.86182000054855
C           23.29293756837598       18.39132716025098       13.44889589510787
C           24.62231667754751       18.39054779868926       12.90092850915824
C           25.73325076737052       18.18608022339926       12.48318049180515
C           27.08364420993817       18.07990806488391       11.94403270378531
C           27.47060770782879       16.55475065546367       13.83037831725002
C           29.10854855765854       16.70312779329883       12.10793931736823
C           26.92724551805961       18.00680640693830       10.41419906202252
C           27.83673987757730       19.36954246579188       12.33840666225703
C           23.14324766951504       20.78056308465191       12.84019450226305
C           23.24044255103292       21.76873714668466       14.00554623194416
C           19.67364574485283       23.63588890317182       15.76735828037562
C           20.70373742211707       19.97820893348972       19.08450749182025
C           19.34605395772933       19.75839982991101       18.40528034758814
C           18.29491988426438       19.30506210753241       19.43957907945189
C           16.67708336550602       20.61191993584665       18.31713519935553
C           17.67824113353596       20.90882049772864       17.20907626096004
C           22.16312484095862       20.47886365764262       23.30244643742250
C           21.91232550841891       19.06181452882343       23.81435616397177
C           20.42852933889476       18.90159576539565       24.13674303155552
C           15.08532765124612       16.88915437435580       20.92127909891354
C           13.89767554290408       16.80504768724651       20.15760339210915
C           13.74542229679286       17.54444064402687       18.99160574800027
C           14.77703628789284       18.36374089277509       18.60143230654651
C           15.96519547100602       18.48755352170403       19.35205749851399
C           16.11332980475518       17.74211013403303       20.51283297640513
F           21.03368043169628       22.55134633983147       13.73235883518189
H           10.05293775769204       15.77766615565869       25.26447848652728
H           11.67627200613950       16.30637645570666       25.72930592788098
H           10.52515784311292       17.47710307463781       25.07441195364871
H           12.17045445743053       16.83076615672076       23.32351603710169
H            9.30600671335861       17.48858044981135       21.44609537257026
H            9.65186635888249       18.16013044270818       23.05690174058926
H           10.95606358399871       18.04827569035472       21.84470866283225
H           11.19921843317731       11.85839004195862       24.85841667440177
H           13.19818897233002       11.13396029933886       23.53481419633117
H           14.35404743808235       12.84504509669027       22.12829307637222
H           11.22735965280701       14.94813126793414       20.91433210317255
H           11.34930367580562       16.14389872486175       19.61486733827811
H           12.94780799202918       14.63201744832003       18.39710759283680
H           12.77418231874002       13.43203273217618       19.68194936647022
H           11.38538616067589       13.84677796564301       18.67296116046444
H           15.80533190527632       14.57978127556243       23.33336321046767
H           16.94843748484370       15.68195938059306       22.55496424841879
H           16.85493009018381       14.86991543604577       25.51927077588063
H           18.06803711443787       15.88591335934973       24.72795764078532
H           17.19724871394748       16.48643589650116       26.14140411882700
H           14.77579134279951       16.90230284933898       26.03483030069873
H           13.93231192555954       16.99355828620983       24.49066177619588
H           14.33189850022987       15.42095911264778       25.18307048383896
H           16.22083153550016       18.55859720758155       24.88193153804405
H           15.68211795943328       18.30690509498056       23.21229439109947
H           19.78366891202131       18.48075560960275       22.11376311031595
H           19.52952655605220       21.27889978264355       22.89470036654500
H           19.81424852247271       21.60480456467866       20.24416989374197
H           22.15922551110020       22.27490149394735       18.59164627537345
H           22.26977844373382       24.32435356649867       17.78905435536253
H           19.61898431355963       25.78704052194367       17.41061650165479
H           21.16841626878124       26.06558098944139       15.43611147217079
H           21.02612247666107       27.55098139613635       16.37363870373574
H           22.45613420510058       26.53175885366407       16.54429423436035
H           20.69761928907650       27.48225603687421       18.85348378846234
H           20.52659043571602       25.94225601266604       19.69333522669233
H           22.10012237690152       26.43173451770772       19.05838130440518
H           21.95253141049150       20.16458700180941       15.83893843860938
H           20.30110692119475       20.68918854498354       15.49714344206587
H           20.59279381308750       20.04917291117045       13.09891995804842
H           20.93367489795708       18.64989220925910       14.15690640137467
H           27.94653064138725       17.27986233502945       14.50899405655798
H           26.40143731901884       16.53850637824464       14.03205831173941
H           27.87695748185424       15.56832588850756       14.04976998716609
H           29.27564520924249       16.90912483157216       11.05506698270568
H           29.75515341245309       17.35711997615144       12.71114040536348
H           29.39676722405191       15.67069528546315       12.30146933782313
H           26.31674191187044       18.83811621313232       10.06919481516101
H           27.89333759657171       18.06175433112314        9.92117958151956
H           26.44079195077126       17.07220576345477       10.14665540646154
H           27.25672550372475       20.23782238508291       12.03760356408089
H           27.98095988368461       19.40955146106137       13.41675920744999
H           28.80439466863129       19.40749262961342       11.84661599839261
H           24.13061950683385       20.60785304107996       12.41102314086670
H           22.48136834203152       21.19022960182859       12.07135589681872
H           23.59091842060493       22.73615488308999       13.64712664812144
H           23.93842783019656       21.40843303495571       14.76126391641242
H           19.60483675531334       24.41455415086880       15.00652131715815
H           19.40113336535913       22.68393514128406       15.32325808242640
H           18.97373795463791       23.84577083825225       16.57203098259929
H           21.49676720189600       19.97448079048803       18.33599654905722
H           20.88268843960883       19.14975100206846       19.76936011302666
H           19.44034932469069       18.95327175688864       17.65514692937363
H           18.32926974937812       19.96951836293669       20.31762701040677
H           18.55863321583749       18.29153114044215       19.74131561319172
H           15.66357944576733       20.65839733425248       17.93363355243483
H           16.79372307216881       21.37127126383401       19.10615538584906
H           17.49830044800104       21.88921268839878       16.77081323919820
H           17.60974226243740       20.12889075908161       16.43792340585174
H           23.19078651976339       20.61714198083576       22.97047741155796
H           21.93216373323060       21.21002539808348       24.08216444505300
H           22.51302531699476       18.88476529194624       24.70494513832056
H           22.20658997183281       18.34192597684524       23.04921473599775
H           20.15132826510738       19.58191177642995       24.94603055029112
H           20.20275827712056       17.88213383604728       24.44760958173480
H           12.85233562597339       17.47329778618743       18.39011353071918
H           14.67657813036583       18.90782617570882       17.67525443296084
H           17.01218552576340       17.80908640566541       21.10365079808401
