151
 energy: -221.331640488761 gnorm: 0.008812378454 xtb: 6.7.1 (edcfbbe)
C           10.87080402879082       16.22292264810365       24.43266724093196
N           11.63712552828547       13.63575900503077       23.71763599433875
O           10.42623785800260       15.88723619638501       22.04715127160160
C           11.44587116998959       15.94691076314610       23.04335901320190
N           13.32091715074207       16.05935997331087       20.44042723082708
O           17.66658350531590       18.41810877500927       23.59074468020007
C            9.96163879436759       17.14882764734713       21.61826031341494
N           20.00559619760849       20.83426119081002       23.04227075472620
O           22.57670610272595       16.98731896346878       13.57320678659070
C           12.18429845237063       14.62046531204537       23.02175923359692
N           21.36259330331935       21.03878927509270       22.77485289696513
O           22.94264142900836       22.35519955546305       16.95410422656285
C           12.25208039093871       12.46945122828006       23.78478203596122
N           21.11161253344314       22.38106361764823       19.44622373556969
O           19.18661413599295       23.53889329643030       19.20514202903912
C           13.46822476123508       12.21718355061382       23.16910631751967
N           20.91769987405277       23.25276891184493       16.55327297312351
O           19.06725226008719       20.49003574357203       17.95646898521338
C           14.03763174724661       13.23007018888119       22.41982962900178
N           22.59259109171934       19.25003936344199       13.46439213803431
O           22.95145300610061       21.56968051852584       21.26879907611969
C           13.39230797674574       14.46046262094515       22.32186750910401
N           27.48736893547017       16.52085109193478       11.87459052612090
O           17.79617592685618       20.34294909280677       24.73528052508954
C           13.97881152920397       15.55167693123594       21.53785181857222
N           16.55244575172271       20.41583218243587       19.32741706005795
C           12.31436594753538       15.35448603704376       19.68662261184560
C           12.94154866591266       14.26939165412538       18.81196768455597
C           15.12783201055044       16.27124430564658       21.78856667994567
C           16.14770027869344       15.96665573826135       22.84253351878764
C           16.01315039634601       16.72731797879113       24.17908785151686
C           17.01676173471129       16.14235821518029       25.17732184289323
C           14.59946373586484       16.60033949947167       24.74241259285139
C           16.29845185425373       18.21975552701117       23.97900329702714
C           18.29151993104044       19.48258731279140       24.03842203181440
C           19.74963481051245       19.51170836688898       23.60903459886823
C           21.77271959466935       21.37812642109918       21.54249537615163
C           20.66085196540667       21.50491524837020       20.50091367676045
C           20.34994521367028       23.32391014267393       18.88634682273522
C           21.05784769194622       24.08102491452722       17.75355865700659
C           20.52475699120687       25.50827411807341       17.56263892289043
C           21.23099304268547       26.19750993212319       16.39763421788905
C           20.73884856582831       26.30721881438099       18.84707391243659
C           21.93871760929595       22.44930800746074       16.24205566801360
C           21.88640121048931       21.60021183994668       14.96440057331024
C           21.28101877942124       20.22743366135391       15.27619054534186
C           21.26036919265537       19.37081529387440       14.01185479188205
C           23.14651369957438       18.03891016509469       13.27829965457726
C           24.45779550855184       18.02995935737227       12.68410299605299
C           25.53529020940229       17.83423113055126       12.18382179563123
C           26.84538370099468       17.79430206703099       11.53759367061636
C           27.60729872381583       16.27557283170216       13.29708190177446
C           28.74504589936648       16.26384842544832       11.20608427706136
C           26.57966848479825       17.86933633907491       10.02295452460767
C           27.62366447630303       19.04891789544083       11.99063214951778
C           23.23018477188969       20.50612540197801       13.14729608831694
C           23.28985376401626       21.41065114851581       14.38120953564861
C           19.60401142035498       23.24514807769302       15.94359766437556
C           20.32394910050786       20.09726510156464       19.97509327343530
C           18.97093960832489       19.95910585717913       19.27381718150987
C           17.80369814453525       20.62346436582689       20.02780381884500
C           16.69105642657210       21.00020246613923       18.00484987650099
C           17.84386214888292       20.32006273834001       17.26219329661966
C           22.28777556790734       20.83753758808507       23.87936163636964
C           22.10414678651533       19.42788990706622       24.43944836901402
C           20.64127680189595       19.22072164468844       24.82914429478333
C           15.18060028971020       17.30074383997944       20.79662116541880
C           14.04585378817879       17.12113822658998       19.97240687666302
C           13.79155988044290       17.99158796621330       18.92290207592987
C           14.64714302973523       19.04751926832935       18.72608690424368
C           15.79802639425879       19.25664917836619       19.51916486621829
C           16.06798163114049       18.35003916914672       20.53927420240017
F           21.12140891194185       22.24090722357958       13.98176679582968
H           11.66410762781213       16.18561223701690       25.17134544872072
H           10.40556194708216       17.20403309789973       24.46309741001530
H           10.13196231848689       15.46332304310208       24.66594128752169
H           12.15090081354810       16.74603470632769       22.76436029673529
H           10.79390578450760       17.77285663509827       21.26892236784617
H            9.27940595872870       16.94961895706330       20.79533963542726
H            9.42710927784281       17.67921681770267       22.41276525143651
H           11.74579005228468       11.71181063181268       24.36617477592464
H           13.94936321330965       11.26184205760923       23.27281292479844
H           14.97245377091737       13.07789906753562       21.90042203921745
H           11.59454598059481       14.90972879328871       20.37716640619209
H           11.78811783019793       16.08051121458671       19.06397304224920
H           13.66950289165802       14.70399286748245       18.13016808512094
H           13.44489897854351       13.53224074291051       19.43363696606450
H           12.17249537259239       13.76758434088761       18.23209374276631
H           16.09494412360876       14.90237608299947       23.07303453196775
H           17.13709939352396       16.17749887509596       22.43549604460059
H           16.76240948612860       15.11195384157221       25.40032974748749
H           18.01968397835578       16.16392693049393       24.76838988937097
H           17.00408033878007       16.70717188519540       26.10227448253174
H           14.30622409713269       15.55497160353618       24.79420615818741
H           14.54907217041420       17.02577799607891       25.74150279576060
H           13.89173106891367       17.12585247360994       24.10828557329854
H           16.11874102141756       18.78021356418294       24.90136861458314
H           15.66069332518835       18.62537374865825       23.18921190799593
H           19.91524902797865       18.75654375297008       22.83424167739663
H           19.66849622800988       21.53599502520859       23.70487312312203
H           19.78790528179528       21.96096770589895       20.96893468120190
H           22.06115229819319       22.23458418581946       19.12306980224745
H           22.12893201458123       24.12480993843306       17.97607722622211
H           19.44937290097203       25.46033322280343       17.37126081929596
H           20.81940404793392       27.19001741335278       16.25148924234585
H           22.29175780256838       26.29169206185455       16.60839167777887
H           21.11919729562716       25.64146067251844       15.47406937457182
H           20.31781295041241       27.30144402560279       18.73406134554536
H           20.24776703110640       25.82251089706757       19.68664814607953
H           21.79802590445105       26.40250412019577       19.06964561516338
H           21.90585074067713       19.76185577560569       16.03981625551337
H           20.27542929345253       20.32245345768471       15.68258655062757
H           20.60930222637124       19.83705267199310       13.26370354016080
H           20.89612771886677       18.36531568862124       14.23146620845465
H           28.42167079756951       16.84679284185379       13.76823782923489
H           26.67117312120222       16.52300473230873       13.79280989580853
H           27.80597292428889       15.21520217612615       13.44710267426566
H           29.56344940118413       16.91672410490945       11.54937216534837
H           29.02944673094747       15.23323936784752       11.41819543196280
H           28.62982027411410       16.36850755754215       10.13090203252059
H           25.82643031577075       18.62609127673116        9.82481450110045
H           27.48439506614538       18.13502730694709        9.48604776417175
H           26.21147744144771       16.91097830934390        9.66836892615340
H           27.09140496808010       19.94124760652679       11.67634818494089
H           27.72238485567263       19.06994598571704       13.07200150160729
H           28.61216086018026       19.05496694863944       11.54206143904712
H           24.23636405275747       20.31261791235935       12.77622818432836
H           22.64839530339425       21.00890102559697       12.36617426801329
H           23.70042016766948       22.38156315270616       14.10330286816002
H           23.92198691551388       20.97830146800266       15.15592666720267
H           18.86571800365478       23.37486157728659       16.73161756350698
H           19.50419620552355       24.04976142637855       15.21514786612862
H           19.41066907019295       22.30201978353098       15.44819075155050
H           21.10407454325788       19.80294241166376       19.27046465796295
H           20.33439741796059       19.40214225515579       20.81174241209170
H           18.74795256180835       18.88023608414412       19.18046760653366
H           17.96843183861675       21.70499356548413       20.04235333516723
H           17.75308012786795       20.26443227372020       21.05298632498791
H           15.77796949323807       20.92064693841770       17.42409997187582
H           16.93062156151322       22.05976021335828       18.13974010404400
H           17.98200128824949       20.75525494582115       16.27250645971144
H           17.62766147628464       19.24467939361612       17.16141926415356
H           23.29398625898827       20.99310588970584       23.49174027896778
H           22.07647414482983       21.58321277904597       24.65264063116150
H           22.74745297095761       19.29414627539122       25.30744310649030
H           22.39094072740356       18.69907524771397       23.67955238872871
H           20.36608538253125       19.90638015470685       25.63394782990781
H           20.47435808099670       18.20034063900862       25.17220905731927
H           12.93122357624607       17.87063234603678       18.28293541709776
H           14.40092538668959       19.74118399970270       17.94129365155033
H           16.94820026902680       18.44370514567042       21.15285950771678
