151
 energy: -221.321579089558 gnorm: 0.009544987043 xtb: 6.7.1 (edcfbbe)
C            9.84709481427203       17.38280632382774       22.76541504782037
N           10.47629926231894       15.05955483268844       24.22086490602108
O           10.17022923775896       15.43226130464635       21.29974845840252
C           10.80518102887705       16.33169489741741       22.20692543463297
N           13.70033463240092       15.09386103866160       21.10206266152426
O           16.88713308663562       19.35278075289204       23.45296522060427
C            9.64615847295834       16.02976748566730       20.13371006389090
N           19.87514140066751       21.33525650984224       23.06899844668574
O           23.87078895875684       17.29985804766634       13.41439911971714
C           11.35978668892113       15.46235430667247       23.31916272057003
N           21.23363663335888       21.00390756495127       23.12155692127680
O           23.72617067878037       22.46314724686697       17.54338928550839
C           10.86720008676353       14.28053413890217       25.21297327126163
N           21.72868940939528       21.50268446391670       19.91608591526311
O           19.82833979714025       22.68220153119703       20.17859830914174
C           12.17801161486003       13.85976826999563       25.37288710591820
N           21.51541440219901       22.87915570844288       17.39340219258026
O           20.16357818475250       19.44348439411376       18.17944038528085
C           13.10826730879695       14.27937881320713       24.44022189916288
N           23.58995376816567       19.51336277723213       13.84242934184749
O           23.13212252349572       20.15524848009070       22.25826162504551
C           12.71142334080936       15.09331799094505       23.37952836876337
N           27.02654743950733       17.80540137464779        9.50115097238684
O           17.19515862923360       21.35510242560225       22.49634105812358
C           13.72265332283238       15.52596325192191       22.40726690878128
N           18.17593524264605       17.64743155108058       19.09352648070852
C           12.87482203331134       14.03920580347974       20.56920521051987
C           13.53609933767367       12.67335743899556       20.74206352912055
C           14.80897095373959       16.34831172780450       22.62147143025474
C           15.20154716067567       16.98859344806975       23.91538926547377
C           14.73462448278083       18.44911921246456       24.11925363284974
C           15.02294315145447       18.86208323944271       25.56547073589797
C           13.23939352983952       18.57766592354970       23.83647578768613
C           15.47908399669779       19.39742694009791       23.17454429827831
C           17.62156155516233       20.38562228412981       23.08359757958199
C           19.08362394742412       20.16851589924081       23.42974045552901
C           21.95882729814473       20.49061534081485       22.11474042915066
C           21.27805109977538       20.40165069945578       20.73835362076392
C           20.94586108019605       22.56558268626728       19.68844654649497
C           21.54980301496751       23.55692743945002       18.68992874285250
C           20.83907401698296       24.91752760395416       18.68348813375729
C           21.38669196596963       25.80042255833201       17.56540356346282
C           21.03311266803686       25.59112897191825       20.04101746887349
C           22.66187926621036       22.36743791360581       16.92525727225339
C           22.66318278302801       21.56822246388395       15.61954099792966
C           22.51873890201556       20.08225753588706       15.97225188361805
C           22.43939491087283       19.27084934545184       14.68735236597280
C           24.13635854156365       18.47935941585471       13.16801682705571
C           25.01505304085687       18.82279226537522       12.08222199037452
C           25.60245654420491       18.88357485925169       11.03140770965894
C           26.29631215450418       19.05227729525792        9.75712476147035
C           28.03526031667447       17.50869106747164       10.49686181383371
C           27.54848352516871       17.64241882671000        8.16142149326768
C           25.19621428400417       19.26136667409768        8.70144059969491
C           27.17845759514099       20.31592073699874        9.82092733209767
C           23.86491649747850       20.90033744241221       13.53590515667159
C           23.95079714601417       21.74602173664580       14.81145098021368
C           20.19226915515128       22.64119862080819       16.85071848941340
C           21.56753599679174       19.03922298932565       20.09796007891354
C           20.42949971536111       18.51466782766052       19.22003658990652
C           19.14449005355469       18.20792769405224       20.00877046042457
C           17.88511291053721       18.61463821416857       18.04823214330602
C           19.17606145911176       18.93069798081715       17.30173956449681
C           21.64398676029139       20.84707419352413       24.50860263331733
C           20.84401729108217       19.69568691378241       25.12631979415449
C           19.34281639401511       19.91610501930321       24.92172019914423
C           15.49976671750845       16.43003907790398       21.37533009430788
C           14.78157327371401       15.62527380123062       20.45859174867352
C           15.20285135825251       15.48317920585461       19.14111776996921
C           16.32004892625175       16.17336079827674       18.74198762613488
C           17.04297658488299       16.99438483080164       19.62951991258203
C           16.64999002520018       17.10307081373526       20.95028918072589
F           21.61531576135359       21.96379514740906       14.78546575062556
H           10.34945603911953       17.96069205026405       23.53344769870233
H            9.52102596967186       18.05790166062577       21.97786404551304
H            8.98725471138172       16.88368183993001       23.20182321213037
H           11.63748202588532       16.82882010193056       21.68059483186111
H           10.38466980351882       16.68988142180745       19.66334533402923
H            9.41031704542779       15.20613300354873       19.46275540542440
H            8.73381121619237       16.59599289318236       20.34585154159479
H           10.08928081044231       13.98700629765332       25.90494565774992
H           12.45858156249642       13.22238877236484       26.19493679283264
H           14.14232105235660       13.97361448112310       24.50998420374670
H           11.90783135216157       14.05375987665955       21.07319518233361
H           12.71144505061015       14.24242322882903       19.50803200974001
H           13.68267718628565       12.45508725177209       21.79726163908010
H           12.90299771161468       11.90378926273214       20.31251591931358
H           14.50385935282293       12.65422507969684       20.24618948051516
H           14.78186607673127       16.40102007549892       24.73278303514871
H           16.28968114887770       16.96856191805363       24.00052109983576
H           14.46476620558670       18.23566079282180       26.25632852404281
H           16.08290418650419       18.76345564555277       25.78382795076221
H           14.73085506460500       19.89634002100196       25.72760517520031
H           12.89135272506909       19.58580904574019       24.07474715396349
H           13.03058770598469       18.37767323385340       22.78451292201090
H           12.68844199040718       17.85922182306545       24.44342147281313
H           15.13557111392303       20.42910423900275       23.30115822190358
H           15.32420123187866       19.10922184795563       22.13012483192050
H           19.39789051227340       19.26854780633619       22.86649582984100
H           19.59411893616803       21.78032504498481       22.19767075095226
H           20.19998574798434       20.53992855944879       20.83052743570882
H           22.66832757571154       21.47175805165449       19.54933871046529
H           22.60725638597829       23.70617564366454       18.93409339739149
H           19.76823731341465       24.76081104075143       18.53455059058815
H           22.45870996576963       25.93708390993365       17.68368667600451
H           21.20447529766201       25.35941584438445       16.58948547190658
H           20.90695730704987       26.77438172800924       17.59582153222129
H           20.59157105908967       24.98850649520867       20.83043773891970
H           22.09044590801471       25.72765926432061       20.25406726764541
H           20.54847024589569       26.56337052291020       20.04363723189628
H           23.39636784267794       19.80096831104595       16.55402565348398
H           21.63352780783976       19.90789441840879       16.58279700004747
H           21.53354216120835       19.55943328083193       14.14058697687068
H           22.40020857226494       18.20183708590840       14.89510103245612
H           27.62064716356191       17.66498098526580       11.49175522393984
H           28.31293126884317       16.45906966868567       10.40237297051504
H           28.94616226979103       18.11695320987793       10.38907417433779
H           28.03880960452584       16.67085518935754        8.11503415786759
H           26.73597560298266       17.64162546791799        7.43784406563396
H           28.28504134646735       18.41057208169537        7.87778390490455
H           24.50449431978229       20.02640950395012        9.04707348468979
H           25.63175195241160       19.58920955759949        7.76132445333332
H           24.64596198288000       18.33719376679460        8.54979295046185
H           27.87016321138974       20.26936675941052       10.65842002318104
H           27.74326762350069       20.41530667802341        8.89665366958298
H           26.55055922134402       21.19587745193267        9.93769999916976
H           24.80417735636718       20.95769999733797       12.98427856938495
H           23.05862333636195       21.29962996185024       12.90648482327553
H           24.07169719967623       22.79368892434453       14.53681426245424
H           24.79218424512096       21.44917806772703       15.43337618793673
H           19.46519151435485       22.79033606505696       17.64494026787805
H           19.97121001742609       23.32281607888850       16.02963130425021
H           20.09573420244142       21.61728357807274       16.49931858976186
H           22.47606942570578       19.11643693508432       19.50019523561911
H           21.75303449007483       18.30726748332394       20.88449098072415
H           20.75880004653306       17.56789474443333       18.75893089193077
H           18.76241522326121       19.13837084589446       20.46952206108335
H           19.36993942338398       17.47842663326763       20.78832058942951
H           17.14910221162967       18.20871642467695       17.35690522819781
H           17.48626171960534       19.54912407784371       18.48367656261504
H           18.99897048849085       19.69900122467106       16.54764746694177
H           19.55512651055199       18.01775602842854       16.82102506536565
H           22.71351600406201       20.64079820657025       24.52002603109366
H           21.43287430778908       21.78326788172680       25.02452527168948
H           21.06953436842057       19.62499311472043       26.18859231095164
H           21.14687207802241       18.76177945624816       24.64711899152745
H           19.01806385957484       20.79350817852297       25.48030955617663
H           18.77804072499965       19.04749042559380       25.25626059596893
H           14.67568393857007       14.84934916024632       18.44530001424874
H           16.67419135345670       16.07405850970033       17.72741609506432
H           17.21257225815713       17.69839039466921       21.65261155857264
