151
 energy: -221.331409692248 gnorm: 0.006366503004 xtb: 6.7.1 (edcfbbe)
C           10.27383780863885       17.19045065435381       24.74085474185214
N           10.84617220050130       14.43695496350979       24.71180869894574
O            9.83192012136843       16.21873368313009       22.52747814024550
C           10.84005364341512       16.51779933095600       23.49125851601662
N           12.98856009063983       15.80953994373868       21.04403645593096
O           17.35570011026003       18.53296738400617       23.57115860916862
C            9.29963903544531       17.34775661522577       21.86818650772245
N           20.10582365245060       20.41460853508510       22.53805501259235
O           23.17477858391051       17.26980858464231       12.79212894369921
C           11.50244998208154       15.20066620464366       23.85026774300411
N           21.48560608068644       20.33597465363011       22.33562362402257
O           23.07635241866174       21.93932324304359       16.53874389657109
C           11.36962302239403       13.28223999524701       25.08389013387353
N           21.40380811007081       21.56114995369219       19.05088761557379
O           19.45776427404547       22.71254401912557       19.11970479066994
C           12.60035249394834       12.82898018441944       24.63672110045938
N           21.04464145154939       22.89057905884072       16.36152663932169
O           19.41077230179761       19.90991667580727       17.59492852167594
C           13.28930401565511       13.61542010808452       23.73154747411759
N           22.82530779787145       19.50665518955663       12.64815311707010
O           23.21718492330368       20.40634996749763       20.89937466514762
C           12.73772830819452       14.82282829255385       23.30466459805780
N           28.37287227077268       18.21220506013829       12.04087313238736
O           17.78742325331313       20.70000074066178       23.95610051339710
C           13.47137561762503       15.62301801843856       22.31820113252213
N           17.23656414871884       18.52468941751552       18.77348499445667
C           11.88442223859462       15.09894878739434       20.44861783522498
C           12.32394771879683       13.73635011888875       19.91484164990580
C           14.70276449214327       16.22549759645209       22.45928158616296
C           15.56792717350986       16.21288698513960       23.67955474567484
C           15.44207580802295       17.43894654889758       24.61216106791358
C           16.25469798702301       17.17765082869622       25.88318791838320
C           13.98276431590531       17.69419784646457       24.98576804046181
C           15.97162802042729       18.69633620912641       23.91496109481850
C           18.13797341547947       19.58881013522325       23.61989782768440
C           19.57031602792664       19.25527527975087       23.23854684929514
C           22.00847683750226       20.42079772374013       21.10206630882497
C           20.99951136028725       20.51322426461600       19.95627671379421
C           20.59872373097158       22.56984688079497       18.70162224498308
C           21.23982726183966       23.51170397036040       17.67351963467936
C           20.70160317972403       24.94709176608706       17.74096099040855
C           21.39863857764753       25.82387322559298       16.70307996992527
C           20.93806103599693       25.51222452619359       19.14203552181949
C           22.05159381531310       22.15547142522854       15.88388058274420
C           21.97089465579290       21.54786492906065       14.47829516565348
C           21.46523763235766       20.10460659422649       14.57972176504997
C           21.49471439512321       19.43038299899762       13.20685134433735
C           23.58821642010703       18.40260422525843       12.53949350902875
C           24.93318516875849       18.62899126461972       12.07436932712241
C           26.07205025648250       18.68343229544655       11.68668596602571
C           27.41962783182133       18.90965887533982       11.16966525011019
C           28.24713010773452       18.54848540038495       13.44435253703971
C           29.75704355219533       18.28827003764069       11.62304642452133
C           27.44537151549050       18.29778666492882        9.75803994728931
C           27.63025632631357       20.43619261166085       11.07648019560613
C           23.30629073146046       20.85583892272491       12.47012262359655
C           23.35048635111866       21.58563863007777       13.81341683695070
C           19.70384478806368       22.96376508623710       15.81845013806271
C           20.95327409050836       19.14151941931981       19.25810158662298
C           19.63750079353520       18.86538252360813       18.52648735732430
C           18.46898317347957       18.67615634209877       19.51359859177079
C           17.02832859812342       19.68507258975832       17.92989540875481
C           18.17482606987601       19.73985991936165       16.92713460073425
C           22.30547004571556       20.10707432384089       23.51415321865050
C           21.84553261693543       18.81705122216261       24.19109524151696
C           20.35694412587777       18.91696084547616       24.52110093158767
C           15.01229898025716       16.80611944866020       21.19051373303126
C           13.92780537957389       16.50669332130012       20.33442877773794
C           13.94520339508180       16.88991351770436       18.99870628422207
C           15.04483887023486       17.56673052756307       18.53115295000861
C           16.13434939078013       17.89646636954556       19.36471022812102
C           16.11170213900588       17.51398820218569       20.69709567716616
F           21.11248883465867       22.28622208283416       13.65663836855645
H           11.06149884342562       17.30354179931678       25.47966363773179
H            9.87521217624901       18.17173622307662       24.50139329267084
H            9.48486266908241       16.56654275235567       25.15023410364994
H           11.58741376382905       17.17549231451257       23.01630814126836
H            8.65746352041419       17.93675583849794       22.52889886247328
H           10.10267109222742       17.98522368713508       21.47925843528462
H            8.70837528480582       16.95801151538364       21.04277487660569
H           10.77628060802098       12.70011335913558       25.77572560330694
H           13.00169033227795       11.88842039194207       24.97782171390498
H           14.24384934510496       13.30171074521570       23.33431597499404
H           11.09617883201736       14.97185661632815       21.19360996325715
H           11.48943121221914       15.71033917578290       19.63426066790936
H           13.11237247798034       13.85533624888161       19.17551867598409
H           12.69983216622270       13.11904171940208       20.72807593294731
H           11.48011014672098       13.23112337861441       19.45613890604708
H           15.32779100163068       15.32906560464110       24.27200475178586
H           16.60982747464565       16.14066214821098       23.36316311456343
H           15.81800820460515       16.35368326098475       26.44425274259408
H           17.28327181126454       16.92466671727156       25.63422456057077
H           16.26069715019323       18.06370828867622       26.51862266672749
H           13.91393830249513       18.47772450424341       25.73685417122736
H           13.41400537518428       18.00473106001467       24.11328311188328
H           13.53661924091428       16.78706933280932       25.38394889653001
H           15.87671279021619       19.57350420343711       24.56239401390694
H           15.42008794326302       18.88019099537474       22.98837964415114
H           19.58166543957007       18.40061355671189       22.55508880916395
H           19.86960257078717       21.25681863621059       23.06558321889699
H           20.02172914112022       20.79875193620433       20.34653252228163
H           22.32363180368720       21.48220230307087       18.63474944188682
H           22.32086870070451       23.53185144558215       17.84565642171707
H           19.62473767948284       24.93533411048252       17.55634053406214
H           21.33015144676898       25.39246738108791       15.70597371938076
H           20.94438475228939       26.81110823841103       16.68522693698488
H           22.45427471414387       25.93357303252396       16.95003742612374
H           21.99365339316102       25.46962898332434       19.40231137794115
H           20.61038478499552       26.54841824502212       19.18349261107717
H           20.37723818188962       24.94657640773650       19.87917650191111
H           22.12563341591997       19.57756883240252       15.27083500074483
H           20.45618320997475       20.07957674966498       14.99088345486529
H           20.79822072960837       19.93619551543310       12.53086700832134
H           21.22096406029341       18.37708004210325       13.29382472629068
H           28.61482578013885       19.55775499910114       13.68556576133457
H           27.20478289001133       18.47163949977008       13.74750594603215
H           28.82809848736522       17.82985247147611       14.02167581830532
H           29.85640262733811       17.97286329112700       10.58872057319268
H           30.19282319096464       19.29249644731712       11.73972343289557
H           30.32949533139355       17.60011744514324       12.24448395600226
H           26.55278133101034       18.60176811838501        9.21645341089368
H           28.31562608220080       18.63623739047300        9.20319186683598
H           27.45941256586302       17.21375571828304        9.83029945222255
H           28.61772841519636       20.65379696218326       10.67714477505789
H           26.88483714916617       20.86612166849770       10.41314951397624
H           27.53228960116951       20.89969123259239       12.05521503960648
H           24.29910761614556       20.82991192230483       12.01994261003918
H           22.62001139980505       21.38039290080005       11.79751328367646
H           23.64121427006622       22.62492658884628       13.66019878711753
H           24.06743192090282       21.12047444313930       14.48864301917815
H           19.00394692749187       22.96156788649507       16.65285090993071
H           19.57015025135700       23.87320629501635       15.23144203304842
H           19.49199380990408       22.10648812521161       15.18985534583307
H           21.77818659292225       19.10357038364755       18.54453405984902
H           21.10681923808384       18.35281128909092       19.99490663016500
H           19.73949882997069       17.92164922704159       17.96079904927231
H           18.41816922589162       19.53154947794225       20.20594450644026
H           18.66277342584644       17.76466839559074       20.08008652886463
H           16.07549952438784       19.62519232768615       17.41180675729078
H           17.04860225339662       20.61079699826164       18.53025508814118
H           18.06812528336224       20.59597139956632       16.26192203840721
H           18.19621420697144       18.80759146618329       16.34371627500499
H           23.34140812912686       20.04564313135424       23.18187464741978
H           22.19217827858826       20.95711076209923       24.19518015072596
H           22.42111527045829       18.65766536139530       25.10169712356735
H           22.01995280839465       17.97610640831969       23.51851125108413
H           20.19183516529370       19.70803109461302       25.25569732089556
H           19.98990634248419       17.97822389210102       24.93274399899658
H           13.13059808175838       16.65101196672246       18.33348411287719
H           15.08904432491047       17.82706098422021       17.48517790833812
H           16.93126563037203       17.74536394254396       21.35680395643520
