151
 energy: -221.328197118259 gnorm: 0.009073633602 xtb: 6.7.1 (edcfbbe)
C           10.95036037832582       16.85188583587101       25.35756023129521
N           11.18398167728273       14.13469486633021       24.66890089643816
O            9.90800170613493       16.35907233456052       23.18332860548680
C           11.13563814481928       16.41483211777462       23.90397414010050
N           12.76120746649981       16.13046933791492       20.95846781319644
O           17.58003722561233       18.16415462719156       23.22974857359797
C            9.26371092636764       17.60420912010623       23.00468621698851
N           20.00106382531205       20.45651754821775       22.22083137702932
O           23.57999286796216       16.98360472662574       14.45269656723724
C           11.72747826232487       15.01953920394244       23.84496963391074
N           21.36969352676714       20.59085981249088       21.96712923730069
O           22.94657596610858       21.94933734774979       16.15222288944819
C           11.64693882542656       12.89862920365967       24.69334219265654
N           21.22512312389044       21.93403610562529       18.65541354354737
O           19.45214422484264       23.34153412354889       18.70621424183268
C           12.69569429878233       12.46535912960131       23.89654219426993
N           20.95908510168843       22.97118989436074       15.91221347051019
O           19.04155663179173       20.40256733764928       17.41330344314817
C           13.26505575204598       13.37868815128199       23.03003212298195
N           22.71394601977808       18.70015052799613       13.23850973929591
O           23.00892561720923       21.07955068194075       20.50911016711736
C           12.78203168359916       14.68698745076872       22.98314947997960
N           28.40088779315785       18.14124200549626       12.36572543720328
O           17.84212884037351       20.26899516683341       23.95190325407595
C           13.42203119248974       15.62699781082362       22.05610220201267
N           16.88211880638771       19.03839135032604       18.66794475192674
C           11.47627450844418       15.68945808256457       20.47654470575203
C           11.58119945640271       14.36610839738214       19.71971088761779
C           14.72194851257985       16.08336722166499       22.08399922234163
C           15.80505410139115       15.71941283561391       23.04956381129492
C           15.96726044126161       16.65393669179340       24.26749923837677
C           17.11331781843525       16.13761628352236       25.14027750386444
C           14.67574700926617       16.68602849939604       25.08324678763226
C           16.26659666392794       18.08632017069233       23.81481925297995
C           18.25422923036649       19.27979636448201       23.38325581637658
C           19.67155072084114       19.18157739335756       22.84733109042078
C           21.81908295252511       20.89850927081969       20.74300412281668
C           20.76830868593196       20.97946766200210       19.63530848135540
C           20.54411824362955       23.01330519352577       18.26093886982929
C           21.25533986692290       23.75483031608237       17.11674047854291
C           20.88670678053384       25.23602354834124       16.99508803877583
C           21.64392200225557       25.87494144103255       15.83026393063257
C           21.24656270356791       25.94463902734823       18.30050966049797
C           21.88150892426923       22.08506049570665       15.53577669788059
C           21.68728399720210       21.13302790957674       14.34681040111749
C           21.35669958110002       19.75787157262191       14.94512306689617
C           21.42841963512482       18.64406102683218       13.89773097382376
C           23.73409878632803       17.93551141413739       13.68598106824752
C           25.02988727251346       18.32251752765687       13.19382419538469
C           26.14845036737992       18.66949483415560       12.91279847952525
C           27.44075613058654       19.23585788577449       12.53661583460578
C           28.55969309807167       17.31202939034582       13.54347837444429
C           29.69070123568631       18.52848251991918       11.83269240708691
C           27.22506016226927       19.97812184609574       11.20776202453784
C           27.81107016661420       20.25390733332748       13.64013292171411
C           22.91716858360343       19.93455841262639       12.51613577399035
C           22.96816600052863       21.10037583063415       13.50419699728669
C           19.60626645202760       23.08657004423678       15.41350283414540
C           20.62979990683624       19.57543233042703       19.01473762512462
C           19.29316610854718       19.33185237467663       18.30586858284004
C           18.16396438364034       19.11472107684832       19.33312978521566
C           16.67684315524542       20.23793762924166       17.88112027995274
C           17.76499756178562       20.27653170545764       16.81454092167885
C           22.27304538684837       20.39624143339410       23.09116499540658
C           22.04377880020503       19.00060663887727       23.66321192669847
C           20.57584254836034       18.85109189745610       24.05442363728864
C           14.87556298451985       16.91906590171749       20.93715119422778
C           13.64477616149873       16.89652616242061       20.24613900836345
C           13.50698434763976       17.57308709732472       19.04003684129710
C           14.58492782946860       18.27399591003646       18.55538122966535
C           15.81522014385545       18.35329341841417       19.24676027668836
C           15.94875061138593       17.66154398749338       20.44194041462184
F           20.65982012905598       21.51320670594269       13.48014484037157
H           10.21708653954853       16.21338667189213       25.83076770949447
H           11.89219064976984       16.76071969467162       25.88747261551929
H           10.62182135516024       17.88355703464785       25.40591082340121
H           11.81108737296260       17.11874005630037       23.38587547234837
H            8.45448569134933       17.41821199612712       22.30219134944599
H            8.84955677300373       17.98322777893896       23.94199292956638
H            9.95543468411352       18.34393725449949       22.58516260230757
H           11.15436287785745       12.23383632844697       25.38884473119303
H           13.04678286453608       11.44770660968866       23.95033153187175
H           14.07362016144887       13.09265570801481       22.37313513366849
H           10.79325957968778       15.57696237105625       21.32209981671241
H           11.08514441589357       16.46801015167663       19.81703188553110
H           12.33208843316364       14.43729838218550       18.93227591164786
H           11.86525380313959       13.56408817911058       20.40162185948582
H           10.61998454409674       14.11910205698892       19.27476660482669
H           15.62039592274106       14.71404041487085       23.43211777776551
H           16.75120892677066       15.70420753452587       22.50296631303088
H           16.87479776268362       15.14823401820874       25.52058070027767
H           18.03382586837791       16.07371714018147       24.56554219734909
H           17.27830933564796       16.80237943028596       25.98542623879039
H           14.36482256989961       15.67496366493409       25.33099127005508
H           14.81837051447689       17.24136764242098       26.00597532621700
H           13.88309843704351       17.15831125379670       24.51032805013443
H           16.23024288920956       18.78096852815025       24.65852374655657
H           15.54619434177164       18.41307528983328       23.05934038163342
H           19.74386943329376       18.39173378055860       22.09572514732002
H           19.68512754769732       21.20979387919069       22.83697033006516
H           19.81837708145178       21.34130391676911       20.03137071805779
H           22.12993727854550       21.73929412158487       18.24240198516268
H           22.33675177053869       23.67893419395050       17.27382007306798
H           19.81039213683519       25.33502126208651       16.83850502479465
H           21.36648752865939       26.91945953114566       15.74214800122879
H           22.71593957677973       25.81448986221470       16.00765491689003
H           21.42587359566997       25.37520805628282       14.89026064211350
H           21.06521356156190       27.01073196865266       18.20495823428518
H           20.64533985607629       25.56304472105943       19.12075969453408
H           22.29777411940231       25.79237417899288       18.54044441828907
H           22.09857906298012       19.56257163925473       15.72287163214718
H           20.37115921186824       19.79630423733171       15.41161904744447
H           20.64112546044155       18.76719423360730       13.15033771629164
H           21.33060830211708       17.67023189534408       14.37982636169756
H           29.18641433319699       17.77835831166819       14.31951525677864
H           27.58373813350075       17.08503803163607       13.96887844139994
H           29.03190849483157       16.37599522454506       13.24424291333943
H           29.56588876994751       19.01785381073991       10.87065925493565
H           30.26411545850711       19.18514849641282       12.50506013329968
H           30.27107101681080       17.62044398468683       11.67699994972635
H           26.33669858500372       20.60089745643299       11.28313413985693
H           28.07124091241686       20.62106480950298       10.98314063508849
H           27.08801424308355       19.26039206026745       10.40379846652908
H           27.04623017171994       21.02471387206326       13.69933632662094
H           27.87545328782415       19.76553299322544       14.60932661323680
H           28.76368629612583       20.72291241653552       13.41045677393088
H           23.84006623287748       19.87815887421190       11.94207460899670
H           22.07359535681405       20.06725228461966       11.83416468109673
H           23.05885315162589       22.04796033659365       12.97163265204316
H           23.81865108015504       20.99198838775396       14.17959651242543
H           18.95588767955260       23.31119174004533       16.25589703053524
H           19.53235443280608       23.88359877797180       14.67507927644804
H           19.27214509998105       22.15755613449056       14.96950465613555
H           21.44876915549440       19.44780038555237       18.30537589198221
H           20.73810176615032       18.82299396387167       19.79564140955083
H           19.37327512159326       18.40399293339368       17.71095593012895
H           18.17688916964242       19.92576652066973       20.07838194087955
H           18.37610208987191       18.17052579746457       19.83145796974559
H           15.69805364247327       20.25163651008787       17.41349374039394
H           16.78224954757979       21.13570602899675       18.51342395406241
H           17.64220371896392       21.14315181868890       16.16542629084778
H           17.72577240390254       19.35167829149134       16.21952003040960
H           23.28765153443090       20.51919880827120       22.71277088416291
H           22.06920240204126       21.16222370256895       23.84540367300070
H           22.67978320409330       18.85005087365299       24.53310253876040
H           22.30753334817739       18.25723607183982       22.90864354979960
H           20.33795722289292       19.54123319286696       24.86882541609523
H           20.36714631990669       17.83555939910345       24.39149107603540
H           12.58832814436624       17.54182215060521       18.47530220858937
H           14.47974281405149       18.76029031042192       17.59946488640399
H           16.86402478391493       17.68139703580691       21.00758143276942
