151
 energy: -221.327950561006 gnorm: 0.008501428853 xtb: 6.7.1 (edcfbbe)
C           11.10388345922811       17.76630355456348       24.91050061348483
N           11.29901198744492       14.95812158256740       25.00522495606046
O           10.05629902618724       16.68172584091949       22.96330637226421
C           11.28879984651147       16.93585280355792       23.63939724969626
N           12.91693958300730       16.00202015953302       20.93911396717294
O           17.78772109892246       18.19034777015366       22.90968824343784
C            9.43413322343521       17.81906089877135       22.40582362427657
N           20.47449328471308       20.11689685465230       22.22257876736679
O           23.02961609626068       17.64443188121754       14.12083625736574
C           11.85266576489301       15.56545142299574       23.96609145339392
N           21.78033190217690       20.13286117160656       21.72456235265428
O           22.70740778073100       22.71086937409355       16.46850305623164
C           11.70871321852783       13.74917154201557       25.34520281632958
N           21.04079444848503       21.86133331659969       18.75764544361258
O           18.97706482479696       22.76328470478817       18.96099380011044
C           12.69722056304619       13.06421423257533       24.65714749057044
N           20.57329815933020       23.37446495261476       16.24067689103921
O           19.06147323396905       20.26922645204008       17.18640051940007
C           13.28891698283709       13.69385024830665       23.57830559873804
N           22.67230018532860       19.65272102409700       13.12013250785094
O           23.17538947810741       20.56588603740563       20.01469966507909
C           12.87536589331912       14.97388909050278       23.20933082499586
N           28.04195535971015       17.50619641008242       13.02220530464225
O           18.64804764440715       19.69135262461137       24.34210142640503
C           13.55866767566677       15.65820703725391       22.10776941708524
N           17.02679005452702       18.63440615422813       18.32171667513337
C           11.64253311598168       15.49170598742304       20.49918963434810
C           11.80329519852986       14.14166311508671       19.80094449583121
C           14.87209669082706       16.07622936267005       22.07272245459959
C           15.95233573513683       15.79017080952989       23.06928967986780
C           16.17897459513550       16.84089405770502       24.17539518836536
C           17.34459786602915       16.38140571758765       25.05557827226073
C           14.92499323589540       17.00645758957418       25.03131107738117
C           16.50802852586344       18.20758922021187       23.55926686685485
C           18.74887208449815       18.94376380925466       23.39283834434226
C           20.05085553340755       18.77601254034022       22.62558819895942
C           22.03450307241893       20.46799587080653       20.45219963545246
C           20.81909115766373       20.67347904339768       19.54510709573989
C           20.11841293293233       22.80091473096817       18.52369623827548
C           20.63815787924040       23.91835990810342       17.60141765022678
C           19.89915663441749       25.24927286521943       17.78460354060751
C           20.46495862058973       26.31327844085445       16.84667631131009
C           20.05097744612687       25.70547301852369       19.23645602079688
C           21.67059463882931       22.75672916455394       15.79544995633879
C           21.67495161706940       21.99631300955481       14.46094019391419
C           21.13203113623249       20.58970654194643       14.74317616022254
C           21.28273024246206       19.68880132696277       13.51779068700127
C           23.46153886814250       18.63972383687461       13.53748462092521
C           24.85168451032423       18.75678781752112       13.18539581503519
C           26.02242010329528       18.71210363611251       12.90877932144608
C           27.41661482207381       18.71538587492547       12.47346469812663
C           28.07435039778703       17.47633385093487       14.47236867686449
C           29.33415929962688       17.16244876592817       12.46467443012023
C           27.37554591370379       18.65989288156705       10.93744990018324
C           28.07802361210461       20.03717698073579       12.91652444560332
C           23.17142967976776       20.94569765487600       12.71775491429879
C           23.09464110551077       21.92980481189710       13.89002986771814
C           19.24814035493091       23.35251782685280       15.65581456535894
C           20.74151692701416       19.40244612842612       18.67361261972638
C           19.39705051859609       19.14763397003420       17.98613465274614
C           18.29723658617112       18.78951237457700       19.00117859297836
C           16.71573242304693       19.85716228455182       17.60473840023206
C           17.80322517447161       20.08313651871757       16.56304756781900
C           22.81233596346418       19.61647244258397       22.61089011881685
C           22.47245002308421       18.16127039777295       22.93678697690398
C           21.07483168904651       18.08766062983757       23.54944928559878
C           15.04873600180155       16.73467240791170       20.81808490516617
C           13.82088657494307       16.63108600040015       20.12729910905560
C           13.69706906230061       17.11872365098115       18.83132236693699
C           14.77812338639072       17.75380301189054       18.27000107650821
C           15.98564563326276       17.95604599601504       18.97208502965775
C           16.12319394454365       17.41522536443198       20.24069623866552
F           20.87465049854554       22.62288166594967       13.50023683967459
H           12.03828388808538       17.79923346364843       25.46262518191756
H           10.80549750208955       18.78187727353867       24.66561834102256
H           10.34502777257910       17.29839153112251       25.53093030305711
H           11.96933964706169       17.46178588415723       22.94635451657275
H           10.13721173990483       18.37585453335593       21.76958913211874
H            8.60976385581995       17.43609534479963       21.79847233848707
H            9.03636991977482       18.48325961520246       23.18135072163989
H           11.21769645947900       13.32001238550117       26.20757083505146
H           12.99273170390087       12.07272202231960       24.95921126127553
H           14.06385361182256       13.20765759405346       23.00637805656936
H           10.98028990476765       15.39197540060666       21.36170721304407
H           11.20593613673003       16.22026869286147       19.81179179437788
H           12.50859335029569       14.22755738445225       18.97712190921978
H           12.17662165110230       13.40048636985466       20.50304929956003
H           10.84645153094112       13.80532964094016       19.41363606973956
H           15.73742145571407       14.84190150997997       23.56409520504723
H           16.88661474174179       15.67898182459187       22.51441729813327
H           17.07763170713201       15.47298463543004       25.58945470635904
H           18.22491860838091       16.17694653058244       24.44907408974127
H           17.59924936557579       17.15140614562658       25.78331596381015
H           14.60639691950454       16.04423787266859       25.42366227994797
H           15.12388024268958       17.67162732613837       25.86762875976814
H           14.11670318511414       17.42286910131970       24.43965130723715
H           16.52597638161899       18.98114134677430       24.33190490651404
H           15.77594348938899       18.46603524431162       22.79254085859004
H           19.87722561248806       18.18696752958172       21.72089797023789
H           20.41805132714375       20.73300029077795       23.03594124579549
H           19.91373608465103       20.82329683736274       20.13360003334420
H           21.96099555585281       21.94192258985501       18.33874002501754
H           21.69948353708775       24.07874310948854       17.81989552016704
H           18.83455304380032       25.10287378964211       17.59005338463414
H           19.91890776690900       27.24359749334072       16.97491496588385
H           21.51221793362526       26.49450100979039       17.07679299898005
H           20.39518145897166       26.01360871992299       15.80558378768477
H           19.57653537301988       26.67390076906742       19.37015280533763
H           19.57864220885657       24.99594202931283       19.91030757503565
H           21.10111128777798       25.79336949865423       19.50381493800405
H           21.71723918326780       20.17510539778229       15.56640201693875
H           20.09323098188653       20.63742940887754       15.06265231235712
H           20.69355615506735       20.07933586002184       12.68507455617542
H           20.96540527002702       18.67325467510185       13.75500213289594
H           28.86296884900665       18.11408620801383       14.90191065210552
H           27.10884862120579       17.79149866007409       14.86838088642874
H           28.25517728285179       16.44989616458075       14.79099547138392
H           29.67118319981600       16.24900517280679       12.95284417681215
H           29.23811790436845       16.96231239017837       11.39989359667802
H           30.10305182389978       17.93673687059459       12.62130932235242
H           26.69884746047662       19.42576687802291       10.56799483909469
H           28.36272974206643       18.84231345451693       10.52264114876590
H           27.01392496994648       17.68906582746362       10.61124840309093
H           27.57269200484788       20.87764215347299       12.44745032698781
H           28.02230648686341       20.15911170089482       13.99454106730024
H           29.12024079703041       20.04465065806934       12.60913877055112
H           24.20218142855730       20.84961010098157       12.37822430060073
H           22.54736118402041       21.30778450643274       11.89457841607739
H           23.38913067304641       22.92609347706901       13.55895991720153
H           23.76409307575008       21.62293747209509       14.69273727016049
H           18.97996285684552       24.34659185902963       15.29973084326978
H           19.18553699738938       22.66056939331004       14.82670339845177
H           18.54758425996271       23.04590703169371       16.43097196418763
H           21.52330739943156       19.48149145672966       17.91586471920521
H           20.96749196355187       18.53430962732795       19.29377312149054
H           19.52013247336258       18.27926539033986       17.31300508702945
H           18.23911074531980       19.57281217781255       19.77394596443193
H           18.57608369247118       17.84237999130969       19.46131762670876
H           15.74854582313810       19.78932519169756       17.11455916737774
H           16.70901340097873       20.72121685234480       18.29150901232728
H           17.60770445651378       20.99206336571444       15.99305660445893
H           17.85312951610275       19.21745723019509       15.88539654530618
H           23.76555004398740       19.70496099063970       22.09054459261594
H           22.83327156654266       20.22200488873573       23.52117241172429
H           23.20571017678218       17.75819928256801       23.63355932916491
H           22.50780271698012       17.57393584582049       22.01713706631435
H           21.06546617617309       18.60116460307908       24.51446768081659
H           20.78016867035651       17.04994156968930       23.70837732850789
H           12.78437912312006       16.99419404185567       18.26948143138348
H           14.69968042063069       18.09887362368760       17.25157848638823
H           17.03250465614144       17.52349315442659       20.80526940273815
