151
 energy: -221.330585850384 gnorm: 0.009392996311 xtb: 6.7.1 (edcfbbe)
C           10.03896927319509       17.05397624040474       24.26804864185931
N           10.93213302648386       14.43262397462155       24.79380704731069
O            9.77753499064154       15.55940750032316       22.32775363465272
C           10.71329771303586       16.20788879053203       23.18827271458730
N           13.14965434090782       15.56437953949868       21.03086005703458
O           17.11967398960636       18.78367276654354       23.52864039903730
C            9.01899240512167       16.42775029017816       21.51374296684693
N           19.99902868280119       20.58824359505759       22.61477493245071
O           23.03002568326108       17.18611886914764       12.82271155607469
C           11.53118572690897       15.09365832347120       23.81380319918380
N           21.37787497015128       20.39933609698897       22.49641621349064
O           23.33698738130937       21.84465137816794       16.68921267463940
C           11.56300842590545       13.43729947856155       25.38992749518343
N           21.58632812811129       21.59468340009141       19.21306751260506
O           19.90758483784528       23.09079487479807       19.46469861094289
C           12.84151852533142       13.03397202599775       25.03829621348666
N           21.38258738046041       22.95816682216690       16.61360531494425
O           19.39538893043414       20.06520335498744       17.75950076930469
C           13.47542326360918       13.71820954368780       24.01805396779754
N           22.76003094950316       19.44046878158073       12.83199817868436
O           23.18986530497953       20.28438262347206       21.16759181765863
C           12.82620821722983       14.77580212482115       23.37858003181871
N           28.18116143234782       18.19458678217871       11.52283193369374
O           17.52006405639291       20.98593023882303       23.71628817415005
C           13.55498558522495       15.51797716161973       22.34487154456644
N           17.27848179987873       18.52466223106209       18.83893388568126
C           12.15545835783739       14.71462206042136       20.42362254266216
C           12.76312563985983       13.38700564684957       19.97445134098406
C           14.72244253257678       16.23296775901983       22.51129700549339
C           15.46423980071240       16.42823995244811       23.79522015768453
C           15.16470713947729       17.74923255434167       24.54005792794286
C           15.83208498599953       17.70278233405033       25.91689331979833
C           13.65890861417103       17.93995380359627       24.70777136987491
C           15.71011304438671       18.94615742176951       23.75261880937868
C           17.89299551552929       19.84857433660211       23.52472242206611
C           19.34385362889342       19.46727584891156       23.27668447662829
C           21.97710447083852       20.41267290966615       21.29531985735109
C           21.05314848386854       20.57802190441119       20.08498684431445
C           20.97194109313536       22.75486751699385       18.96343239028995
C           21.70314734664968       23.58439259280879       17.89750058856599
C           21.36481208464498       25.08032685713183       17.93395922805152
C           22.06248086283505       25.81141081315576       16.78881117440635
C           21.81204200462551       25.66046588925245       19.27449026799504
C           22.29527121209429       22.13515159777419       16.09192884602905
C           22.08946033427387       21.51495854478495       14.70474492543767
C           21.56455709212451       20.08412771459780       14.86257584394783
C           21.48119123228752       19.38911108321211       13.50187848723681
C           23.45173974643194       18.31539858185674       12.56608704021929
C           24.73010107792921       18.52379619494948       11.93524291110708
C           25.82367134427266       18.57274718506078       11.43206512522404
C           27.09779456363276       18.84296810077671       10.77144409203095
C           28.09914134127584       18.35920637703849       12.95951383453459
C           29.51174562778388       18.51154352950275       11.04306795165226
C           27.01257905873278       18.22474430191728        9.36315732564839
C           27.22283419174501       20.37919760074228       10.66181592039245
C           23.25252401859336       20.77890265215087       12.60757128223187
C           23.41661470287301       21.51218473899450       13.93958213080537
C           20.01465512531409       23.11227495862248       16.16102824403540
C           20.97142468637836       19.21971139276403       19.36537436799100
C           19.65203877019236       18.97546206027017       18.63059567640008
C           18.48649014382121       18.72964357946451       19.60591896182914
C           17.01054405929725       19.69274543234815       18.02318492831235
C           18.18082715010206       19.87707638103749       17.05755475187226
C           22.11083935659868       20.10338636421428       23.72073231879854
C           21.49880547614745       18.86902080881897       24.38398774538866
C           20.00768994684026       19.10166246671132       24.61934997733219
C           15.07190562688493       16.73906762747340       21.22336738089030
C           14.07200584738414       16.29225315830132       20.32824220835596
C           14.12986254933215       16.61653534524866       18.97777899226539
C           15.18523864873313       17.37675199922874       18.53490493403976
C           16.20103067545268       17.82768816031702       19.40303602912107
C           16.14239230336734       17.50036881713014       20.74688850747911
F           21.18633131778876       22.25868380913334       13.93952872388437
H           10.79324346717129       17.43516861144696       24.95271767677738
H            9.51461492931390       17.89533991056382       23.82186665408872
H            9.33722883154386       16.43298606869395       24.82058041755862
H           11.37086719961988       16.84685824755427       22.57366474244396
H            9.66995418904433       17.13226935776896       20.98392595237188
H            8.50721770691549       15.78894621548031       20.79673832012733
H            8.27823329948928       16.98264936433213       22.09503283093488
H           11.01403248482544       12.95050840390692       26.18478573218811
H           13.32269717464080       12.21409101008009       25.54638471951719
H           14.46844118692205       13.43782373793296       23.69752395234276
H           11.35367954887657       14.53227063300647       21.14163255286197
H           11.73630503823409       15.24474905184811       19.56535993469916
H           13.15668682213638       12.84606417913215       20.83231869991793
H           12.00397827682971       12.77551215172201       19.49612471455231
H           13.57492263525077       13.55901554521656       19.27044013529045
H           15.20942692602878       15.61188965058528       24.47344131618950
H           16.53789824902749       16.38607387988263       23.59729197688095
H           15.45359076435684       16.86133128298063       26.48809412805763
H           16.90826515370939       17.59508422091107       25.81694866326622
H           15.62494923137403       18.61388618899459       26.46861420195092
H           13.44800612004027       18.84353525102012       25.27274154571967
H           13.17424112151558       18.01691232059595       23.73873828227654
H           13.23673128003534       17.09004489504969       25.23769221987016
H           15.54791722629602       19.88385979524098       24.29393324391310
H           15.22608282112385       19.01241360860228       22.77410889108130
H           19.37994374192277       18.60337582594301       22.60296807909889
H           19.79621652333843       21.45017869338237       23.12708895808807
H           20.07238242302585       20.92439789366168       20.41547003774062
H           22.47720193684624       21.40044938219760       18.77294281027213
H           22.78185220843834       23.46451010672624       18.04004421642406
H           20.28233164921464       25.20438288376157       17.85187524242487
H           21.79517398637477       26.86652095891944       16.80892842815265
H           23.14566236529023       25.72674391249812       16.89669867169683
H           21.77958181037395       25.40017821122622       15.81998203089270
H           21.58348326742795       26.72254769514124       19.31370888240279
H           21.29686747294445       25.16676931205411       20.09491872593520
H           22.88464977031244       25.53179424439023       19.40882619232832
H           22.25955899822370       19.55118416935574       15.51438366625777
H           20.58547279925176       20.09096928928306       15.34221486913428
H           20.73532290235813       19.89181970959377       12.87749310363713
H           21.20551871796117       18.34016777806851       13.62541445851037
H           27.13793140222501       17.99322357786401       13.31396634666716
H           28.88580520235355       17.76090052188896       13.41635284953881
H           28.22530405574595       19.40134186946797       13.29183579599794
H           29.56622029537070       18.36185662332845        9.96883165715819
H           29.82578583964513       19.53765360450997       11.28279691812206
H           30.21203720663397       17.82435387234761       11.51693298327917
H           26.04171818615694       18.44243943850726        8.92422138889044
H           27.78358669317024       18.63189371704566        8.71481903916771
H           27.13302995214420       17.14777426523608        9.43396591830934
H           27.28761589623205       20.83158808317640       11.65060765483910
H           28.10851781468826       20.64467031676314       10.08928651641309
H           26.34841258371940       20.77802534332735       10.15339519378120
H           24.20770115491485       20.73135411608534       12.08592484570064
H           22.52731928023988       21.31687889299498       11.98729249329662
H           23.72676308114983       22.54158517067234       13.75779328402892
H           24.16666930007204       21.02655124310246       14.56330482944771
H           19.38246257220550       23.23844061940898       17.03788888121122
H           19.90896686263027       23.97905443202801       15.50808537039039
H           19.68283168631850       22.22570900550259       15.63034688300469
H           21.79594716199077       19.17193103457926       18.65139631601344
H           21.11034325996441       18.41513570130202       20.08807159646499
H           19.75649904679993       18.06325142136309       18.01588796480097
H           18.39350017412502       19.58471622943510       20.29668403135199
H           18.70943490420263       17.82406727444042       20.17251406357785
H           16.08043646363333       19.56669976063201       17.46958013684128
H           16.93654223781073       20.60313221679619       18.65416444983810
H           18.03711298746830       20.77386091664484       16.45206421724389
H           18.26217635780963       18.99205213906705       16.40503693583057
H           23.15144939615503       19.93771799484371       23.44275910033761
H           22.04748276408185       20.96826651958462       24.38967310204849
H           22.00438969103559       18.67563810386638       25.32896960543725
H           21.63927775225527       18.00490646303857       23.73331786639542
H           19.86394403129040       19.92496231442247       25.32543872170863
H           19.53584226064418       18.20701828567438       25.02612459659875
H           13.37854212668116       16.27499385397974       18.28231912057365
H           15.25630609162874       17.61046638803738       17.48416185336450
H           16.90988711478981       17.82155544563791       21.43037291875169
