151
 energy: -221.329016701214 gnorm: 0.005098445992 xtb: 6.7.1 (edcfbbe)
C            9.76160626467136       17.05107532800890       24.31718441706438
N           10.73378042174868       14.51209102643055       25.02536734437789
O            9.64105803547404       15.45050012055907       22.44842221035511
C           10.51284099991809       16.18076514344498       23.31131352175240
N           13.02947913779338       15.40450895636251       21.24711777234884
O           16.85991500661489       18.90831041032241       23.57340217016177
C            8.82188346641366       16.24512959718733       21.61344046323537
N           19.75855876814756       20.60800999247875       22.55227394541427
O           23.84798920999513       17.41699524866229       12.92755243764162
C           11.34395317943009       15.13104061953653       24.02380141229007
N           21.13897652119153       20.40049044419073       22.49485406285963
O           23.69532083876818       22.09350300847308       16.82837821459255
C           11.37104880269010       13.57002314888720       25.69552449505484
N           21.47410990994007       21.41579098362014       19.20974087520962
O           19.91923794629393       23.01330609197697       19.58535651895067
C           12.66968698981887       13.18152551442116       25.40293488075383
N           21.59476441274131       22.90165068620462       16.75375920161417
O           19.19074525918409       19.89491389993295       17.80322603373968
C           13.31459052029434       13.82154959563840       24.36119765071650
N           23.37912248925606       19.63611084205376       12.93346172958032
O           22.97854940631606       20.10060760693022       21.23461128822776
C           12.65645139651077       14.82085091790087       23.64227007082368
N           28.36569724253712       18.08164157829908       10.36334779573483
O           17.24895534042840       21.11762760294669       23.55285292097529
C           13.39074071470177       15.50332909297665       22.57023910790088
N           17.12797277333125       18.27753542913895       18.87819264572426
C           12.09457666462987       14.44364633330614       20.71608339551996
C           12.74635289803003       13.06885726705279       20.57195318010504
C           14.53052163080453       16.26750179430683       22.70142893847094
C           15.24120243312067       16.57458943952901       23.98098024240938
C           14.90835097712429       17.93747124822384       24.62864725888432
C           15.56896789736617       17.99920592336479       26.00907221820668
C           13.39875959607539       18.11612047552179       24.77586668199006
C           15.44728206482681       19.08031466400865       23.76092531479754
C           17.62909137895377       19.96947728934158       23.48006899313870
C           19.08647595669823       19.57038554620208       23.31828548145958
C           21.76853591385128       20.28393017003848       21.31671567441244
C           20.89041089081224       20.41168649679788       20.06817678434408
C           20.95623054863269       22.64027159222445       19.05585722659534
C           21.77144606454993       23.49748320499486       18.07673185259417
C           21.40766978772313       24.98917774151952       18.10774627302492
C           22.19852545340824       25.74545683418121       17.04260162311483
C           21.71066324570269       25.55733300199318       19.49310604982553
C           22.63160654246780       22.24861558674633       16.22157321781006
C           22.52000039892136       21.62125498014989       14.82627585415603
C           22.12815656487858       20.14663955710801       14.97748378288618
C           22.11299412453522       19.46309761749474       13.61034669517876
C           24.14907339369052       18.57490761177947       12.63219354237173
C           25.33197403359361       18.86646738359208       11.86248940946668
C           26.29195194930038       18.93280475176591       11.13775714743696
C           27.40043565701391       19.17470106221684       10.21628496443335
C           28.90580464232245       17.95415089477559       11.70097812515253
C           29.42248815816116       18.04359405407986        9.37507429134529
C           26.78366040413938       19.15953036549753        8.80645000515326
C           27.96756139955503       20.58056807163244       10.51380550627834
C           23.76302906001369       21.01291407882367       12.73422151210234
C           23.85312501230538       21.73609828549427       14.08059286952789
C           20.24938899587013       22.94506442303537       16.21547565803276
C           20.81200693548495       19.04883576938474       19.36285391404019
C           19.47983532843617       18.79599373848966       18.65201769835189
C           18.33082199506390       18.53272705684880       19.64152426046664
C           16.81307591724953       19.43398776072211       18.05861757603528
C           17.97856593632477       19.68710992969130       17.10352636161114
C           21.83558482693196       20.26056879369954       23.76486722451137
C           21.20590660961834       19.12158073315668       24.56534806807365
C           19.70600986961448       19.37047535834633       24.71493395908476
C           14.90708966357965       16.65723019684809       21.37994218536422
C           13.95051186729669       16.09110220871130       20.50355331518784
C           14.04018580097489       16.28390603749924       19.12884993082352
C           15.08347528975650       17.03470048295571       18.64331515900507
C           16.05759330384442       17.59871495692147       19.49196844169777
C           15.96944593831467       17.40306388175583       20.85889139872070
F           21.56446152355892       22.27618690944766       14.04495256645813
H           10.47466427299713       17.53044753112516       24.98063270805385
H            9.18878188185266       17.81979666862779       23.80652940041224
H            9.09514859971749       16.42402173886445       24.90219226743397
H           11.16891141671102       16.81326750893239       22.68965750526818
H            8.46241032310399       15.58118586540207       20.83290137179937
H            7.97085351440531       16.65405109990239       22.16181597173608
H            9.39448382726008       17.06121041885469       21.16778078716652
H           10.81093811603868       13.11135732689260       26.49701383764119
H           13.15606004439600       12.40363799192169       25.96886642195373
H           14.32314862477685       13.54980323424619       24.08451731239300
H           11.23051865843949       14.37802988717434       21.38079977424470
H           11.75534785114897       14.80223010117027       19.74205576601986
H           13.03969816407549       12.68920151497785       21.54844825508042
H           12.04656158470650       12.37030295073464       20.12366215907474
H           13.63210750347873       13.13534533740002       19.94435376929556
H           14.99292001485882       15.80225935777872       24.71093301741945
H           16.31685114445431       16.54178946058135       23.79992671060966
H           15.13839548187216       17.24800669434201       26.66533040289331
H           16.63790726989300       17.81863213922832       25.92899954768579
H           15.41633345908278       18.97752164483283       26.45958095958331
H           13.17434228153567       19.03537957773398       25.31105079166579
H           12.92168346567600       18.15762198202807       23.80062352745279
H           12.98004697164301       17.27920431090698       25.32905987858090
H           15.27070608986386       20.05430290294624       24.22719590827600
H           14.97747800628042       19.06939838396442       22.77351437272998
H           19.14648784993204       18.63540013431031       22.75120829334772
H           19.54548412160752       21.52200706975000       22.95354777197518
H           19.90191409993144       20.77819045555827       20.35043912146108
H           22.37430120324201       21.20121589480588       18.80366966708592
H           22.83383240361647       23.39024614660809       18.32457934598955
H           20.33668225037495       25.10032592863908       17.92073161289849
H           21.95650200936426       26.80377414906307       17.08390871814185
H           23.26618778392352       25.62765029718447       17.21647052475675
H           21.97211663543224       25.37938378546855       16.04520692280656
H           21.48163930296334       26.61931988726726       19.51599746453201
H           21.10626035996988       25.05908397826425       20.24643040563414
H           22.76144220824545       25.42326873288676       19.74117352212507
H           22.86867315863453       19.67645334599949       15.62680045799100
H           21.14782671350212       20.05792070382120       15.44698713331090
H           21.32497194683120       19.90541047485387       12.99182514315926
H           21.93455727313081       18.39204932951940       13.71911801272411
H           29.36087548001678       16.96829386183866       11.79584380487184
H           29.67240166427882       18.70967061920258       11.93333598235888
H           28.10069859131888       18.03174238671597       12.42986342633448
H           29.00073897694374       17.98748311905332        8.37488088236476
H           30.10774606651700       18.90229854654666        9.43091225117680
H           30.00367417277201       17.13742607386534        9.54590086234835
H           25.87460590948099       19.75456661997271        8.80262860655765
H           27.47438106186231       19.58044467147768        8.08195466573207
H           26.53363893406182       18.14061218335123        8.52648359555876
H           28.28536874345242       20.65734433061608       11.55058866429041
H           28.81575238718595       20.78355382670129        9.86518756528101
H           27.20132486973877       21.32823963867402       10.32948860567500
H           24.72495136363028       21.04829757105002       12.22236348446287
H           23.00480056831112       21.50441495165290       12.11425090958204
H           24.08441428362669       22.78932975698683       13.91885982984351
H           24.63212995149497       21.30264138825252       14.70746686206709
H           20.15109010100351       23.71942929455041       15.45446367344485
H           19.97370908987878       21.98477537164938       15.78811492745548
H           19.56445147948415       23.15641384773636       17.03266042438481
H           21.62443140062443       18.99561923565632       18.63701948263643
H           20.96492120097523       18.25178047262717       20.09086356912185
H           19.58183121509317       17.89254923888272       18.02529102690707
H           18.21811872866823       19.39987806322188       20.31364839916981
H           18.57444101338625       17.64553096942661       20.22677930573450
H           15.90270014597031       19.25473544679797       17.48977672703622
H           16.66957915801848       20.32905788483672       18.68885554643916
H           17.80740604037364       20.59300934236590       16.52102871645521
H           18.08891426693558       18.82436335749074       16.43025953227131
H           22.88327892022331       20.06444017625529       23.53779850676048
H           21.75304810138268       21.20380423563026       24.31480877056974
H           21.67645576997363       19.06455400727772       25.54566617029069
H           21.37397669241764       18.17838290192238       24.04346240789398
H           19.53404244212143       20.27074778562092       25.31078654285750
H           19.22244791651045       18.52871202154039       25.21005501057230
H           13.32314183926283       15.84925059090876       18.44933899511308
H           15.18185805416107       17.17576301291420       17.57804705686522
H           16.70968891043092       17.81288880441975       21.52561465040049
