151
 energy: -221.329094649868 gnorm: 0.009039729398 xtb: 6.7.1 (edcfbbe)
C           10.55780922622963       17.20125512917009       24.40164590429571
N           10.90531077238877       14.43282301531900       24.45218273555461
O           10.36297047073354       16.38681320069561       22.09759910374399
C           11.23155251665757       16.49489194594040       23.22150728023681
N           13.19919031417804       15.50455046256210       20.81598296431367
O           17.29338372828700       18.32553135453647       23.60774093533303
C           10.18791662906836       17.59354049728865       21.38899898333840
N           19.64208110410525       20.75297730415563       22.64780005514804
O           22.80683670711849       17.45341739510854       13.05900809055950
C           11.66802868272688       15.08845730212334       23.59240884483929
N           21.01778417051883       20.99295453498555       22.59887927381887
O           23.00726424201318       22.16654056001341       16.77594107234771
C           11.25718474227496       13.21618951710018       24.83073822965709
N           21.25945085344136       22.07436132704558       19.22502609979813
O           19.42927710433170       23.40585876734962       19.21073687081276
C           12.40797155739833       12.58511571305814       24.38532288013226
N           21.09072132589369       23.31107461284309       16.48488084138940
O           19.34864172219279       20.37398472796134       17.89986551635613
C           13.20922881061002       13.25954614551643       23.48081583716933
N           22.69381352073363       19.71247470596114       12.88423491288503
O           22.85500894988419       21.40161034353082       21.36636377257169
C           12.84116647395633       14.53264894291191       23.05648386371630
N           27.70000834057076       17.16737157271276       11.40757662675352
O           17.23338576139887       20.54076352967470       23.94594934769058
C           13.66136838625177       15.27064223792983       22.08962224965952
N           17.30705129037895       18.64221900665785       18.84259534840549
C           12.10819193662025       14.80544118975858       20.18518331613918
C           12.57554411966327       13.49558246957217       19.55432509637071
C           14.88360527653690       15.87855361327817       22.27977113193936
C           15.79157541906548       15.73391283750958       23.46201492881223
C           15.68005972778187       16.78748756982146       24.58543546627218
C           16.73164149446854       16.46801896416006       25.65246835647641
C           14.29139819268673       16.77046381721179       25.22058991931048
C           15.92481561224449       18.19275539990355       24.02514963954576
C           17.82558140814030       19.52693780029125       23.63673619976898
C           19.31122168953049       19.50647409737947       23.32687934738858
C           21.64962549737758       21.18269098333056       21.43116697449655
C           20.78051175285534       21.10346141989168       20.17434039989108
C           20.56175660543661       23.14055995316979       18.82697240934465
C           21.31104505299795       23.96980588207424       17.77431452908419
C           20.91911247559285       25.45259903138661       17.76739100794381
C           21.68791886937415       26.20149440758060       16.68117103717122
C           21.23327407195378       26.05586601240154       19.13590376488865
C           22.03742739620679       22.46457310104385       16.07067944975010
C           21.96120585085881       21.84278150879580       14.67025386046057
C           21.31887507233256       20.45334490010093       14.75650683027728
C           21.34007996300216       19.77334306018244       13.38764462056471
C           23.33666039168994       18.53315889056564       12.78699278243231
C           24.68640755285313       18.59891181999083       12.28759116883623
C           25.80121624896065       18.50190755340547       11.84247798593481
C           27.14572785707577       18.51696289705996       11.27135374399675
C           27.83374446878391       16.72503389426003       12.78183790396539
C           28.91094972638940       16.90477978401667       10.65669364059411
C           26.97775295147083       18.88826943177972        9.78826366480986
C           27.95611949227074       19.61973079661225       11.98692482914780
C           23.32194046311093       21.00311133824525       12.72864347470287
C           23.36947744726191       21.73560791540683       14.07268127239076
C           19.76563936346569       23.46742832793069       15.92038563292194
C           20.87867047351203       19.67861386351368       19.60317746096700
C           19.65923446359039       19.28942381668963       18.76113089039185
C           18.47590318794871       18.88778102708860       19.65976426571455
C           16.99199764315156       19.83590499486402       18.07959636227925
C           18.17174660519455       20.13387068480186       17.15927538251813
C           21.73316272667106       20.96191949778306       23.86386790908682
C           21.53459363791080       19.58651462504636       24.49567918529724
C           20.03989649886532       19.33871498950171       24.67954008827128
C           15.18985527195720       16.54440587654175       21.05273470777782
C           14.12889544755827       16.26309786267917       20.16097225085272
C           14.15096678700512       16.73529128118798       18.85454447003844
C           15.21340390910484       17.51291514245765       18.46288778322653
C           16.25808115642242       17.86099426607768       19.34555968574347
C           16.24695255840675       17.35939405463123       20.63793199873902
F           21.21523161469760       22.65276338054697       13.80593806942214
H            9.51080061341856       16.90925057559700       24.43605473795876
H           11.03090483973125       16.90137665813134       25.33241291024785
H           10.63024606759564       18.28210747030316       24.29950453344428
H           12.12592069597021       17.05840982621450       22.90417791612735
H            9.69444063573146       18.35369366480656       21.99954057712429
H           11.15248243882863       17.98234451524463       21.04026631607658
H            9.56058858520276       17.34966530167732       20.53512678367894
H           10.58606527118119       12.73962730815244       25.53119858113321
H           12.66506038247845       11.59760076434923       24.73388049245596
H           14.11070284639396       12.80835643158761       23.09207381445886
H           11.33954339614279       14.60811310984007       20.93676959012084
H           11.67671218857906       15.45931291550457       19.42300180090118
H           13.36709336832867       13.68240536365690       18.83257030507202
H           12.95578586538442       12.82318107940241       20.32038194140993
H           11.74436962473970       13.01309229765695       19.04888770476482
H           15.61603510169109       14.75712028765347       23.91690010768221
H           16.81831962131031       15.75722742241917       23.09116300863703
H           16.54733937208612       15.48114725483376       26.06560495887503
H           17.72649762847253       16.48609942905158       25.21830544042006
H           16.69070691058704       17.19634156644343       26.45903828348878
H           14.25787092388799       17.42865841511163       26.08460017375263
H           13.54373099598580       17.10258846958919       24.50855839375192
H           14.03628035538092       15.76458302171119       25.54303111574417
H           15.72392551921525       18.95757290089625       24.78153231505659
H           15.28447195316341       18.38121224135253       23.15866983480095
H           19.55199371009166       18.67061770623452       22.66443164276519
H           19.16441290758092       21.51994549398268       23.12623944982738
H           19.74873705461923       21.36442110902809       20.41703156963158
H           22.18217760488120       21.91837222855052       18.83571664189744
H           22.38444026190963       23.89621961351982       17.97771779973896
H           19.84247299763476       25.54027718589582       17.59683889160873
H           21.51210294550895       25.77325689154429       15.69885371773989
H           21.38316036839590       27.24339502265181       16.66284191780734
H           22.75625748094635       26.15913771250290       16.88301723566741
H           21.00781227051920       27.12009071627480       19.12867163866455
H           20.63653650792160       25.58081158056010       19.91113657291011
H           22.28598894936144       25.92587713844253       19.37830220037332
H           21.91030833493175       19.87188273405750       15.46920913358153
H           20.29974117246844       20.52010194510004       15.13424124125869
H           20.72860603633348       20.34225855868837       12.67894537807282
H           20.96165527440258       18.75192919525756       13.45979639029477
H           28.73035107780816       17.12264734477763       13.27973650184641
H           26.95345771633759       17.02119176394892       13.34963575535651
H           27.89115274006793       15.63839099415016       12.78900455391281
H           28.72997956472553       17.04843521887067        9.59332768090559
H           29.76608414412024       17.52602341823830       10.96774614829498
H           29.17688591290535       15.86096305884760       10.81466615085507
H           26.31737541196361       19.74421442627785        9.69980304951410
H           27.93200628877054       19.14385836167515        9.34723734123672
H           26.53992468740681       18.05590150629720        9.24921875455591
H           28.96814081823500       19.65040711471646       11.59200847699466
H           27.48672961447738       20.58479633099441       11.82048762803383
H           27.99767310610470       19.43639089812940       13.05710001188663
H           24.33091660758980       20.87109288062962       12.33912614934347
H           22.73215748375011       21.59245026898066       12.01936935856863
H           23.77556414797573       22.73743620036256       13.93075804281712
H           23.99920850912791       21.20437351111160       14.78629823889870
H           19.68989874754730       24.39559152140031       15.35371615477214
H           19.51689751639348       22.63677604804694       15.26949334812874
H           19.05157109910096       23.48856553193971       16.74426808659558
H           21.78227311353039       19.62551980569487       18.99391485508280
H           20.98014241363356       18.96220979151399       20.41770386298139
H           19.91153355946024       18.41425471559846       18.13642150499810
H           18.29110694111252       19.68083393265468       20.40444456431303
H           18.75280779104532       17.96738000024907       20.17560644572886
H           16.09072436547206       19.69319974259319       17.48917723891398
H           16.84351099993761       20.69682677697995       18.75246680773814
H           17.99043418483453       21.04316184670788       16.58515502117412
H           18.32588326014251       19.28165133466537       16.47828585791745
H           22.78101767925457       21.16734957219141       23.64895689906424
H           21.33001712260634       21.74459371476330       24.51279317196783
H           22.04514762581453       19.54096342560977       25.45596871585384
H           21.95991623158738       18.82812521707154       23.83701592650886
H           19.63164385242909       20.06228730246419       25.38884952297583
H           19.85653359359829       18.33668942720672       25.06567244704015
H           13.36181549121046       16.49802311616883       18.15863120741185
H           15.25348371217632       17.85188773190191       17.44007395054819
H           17.03076295534730       17.59572013940439       21.33848897177114
