151
 energy: -221.330756950669 gnorm: 0.009574248214 xtb: 6.7.1 (edcfbbe)
C           10.56832257655230       16.95750867243491       24.79942720345649
N           11.02652392235132       14.20103753167752       24.53052769893316
O            9.92564869251064       16.14885689865762       22.56597874344330
C           11.01081899687245       16.35822891198442       23.46478880755161
N           13.04285197401691       15.78934064885510       20.85891356471769
O           17.40947043224315       18.37210705324233       23.54929853798006
C            9.28817530225933       17.32771935504135       22.12411750084161
N           19.92952500280191       20.57309057683490       22.45336583720738
O           23.01590510160932       17.48838175808625       13.13632649939075
C           11.65691461274125       15.00337009679897       23.68431217039587
N           21.32034729259957       20.61236060563996       22.32614338402327
O           23.18358533000963       22.46824877838674       16.68857806044417
C           11.53860509439931       13.01558937452565       24.80679317373920
N           21.34062517844069       21.80216944806702       19.05687476902913
O           19.43796674118644       23.00730367499608       19.25527756774866
C           12.72826429917761       12.55935477325636       24.26094622337987
N           21.09393327440416       23.28414740545984       16.50884078593777
O           19.38103717122702       20.19385705966985       17.61454130791397
C           13.38468572536339       13.38287329095595       23.36493306417605
N           22.83213455719865       19.74105493502235       12.96206159449748
O           23.11161199053367       20.72009289240462       20.96924297386695
C           12.85043188376937       14.63124432296268       23.04766879294572
N           28.06988174518797       17.55336094442053       12.01671443755263
O           17.44559103421643       20.60671680765686       23.62229348842853
C           13.56672724265719       15.48519058479424       22.09402314032282
N           17.26221374629248       18.61927802412811       18.66300021328399
C           11.85677323095742       15.22146782397853       20.27012785563649
C           12.16332787341844       13.92665495912455       19.52001212544982
C           14.82020221585004       16.04399092192959       22.23132427319513
C           15.75425677921173       15.89849045124448       23.39093120074589
C           15.65332987858179       16.98151421486030       24.48756251442188
C           16.61268223886998       16.62214085999308       25.62453878384641
C           14.23021652118276       17.07615636992541       25.03425942072245
C           16.02136198619411       18.35332739157889       23.91325768888794
C           17.99890492342798       19.54367084186752       23.45999083040402
C           19.48648103369300       19.40531655732957       23.20026971825538
C           21.89480466629044       20.68233543903803       21.11588085616979
C           20.93467946542460       20.72408899403840       19.92538562537394
C           20.56825311352141       22.86567068259495       18.80882728761076
C           21.22484356389070       23.86528123775075       17.84593933390446
C           20.64634757805088       25.28236617669553       17.95972927979313
C           21.31260200413554       26.21613715856046       16.95254996079345
C           20.87014310965771       25.80015478990731       19.37979424945537
C           22.14465802126598       22.60918444485420       16.03516031569650
C           22.07226633741047       21.92947930222272       14.66227720945827
C           21.51784882259127       20.51241251289885       14.86110546514741
C           21.50345179301857       19.76355912473760       13.53037248539324
C           23.49831462273215       18.58104522143701       12.82884219487716
C           24.82216578743784       18.66724123131937       12.26869704543010
C           25.92523943881062       18.51556611623231       11.80882980044269
C           27.25253024021110       18.45540170399369       11.19821102579910
C           28.18894692840711       17.95461826293428       13.40275445803271
C           29.36522408915588       17.21061836980157       11.46895632910004
C           27.04811620024276       17.86503116258275        9.79269283903943
C           27.79670026732896       19.89427285479483       11.08322579999338
C           23.39125269500346       21.04805143675422       12.71300800595707
C           23.45540661974310       21.86201217216201       14.00881872420223
C           19.76369599740175       23.33054679357837       15.93964428215322
C           20.95386743700423       19.36434009020521       19.20816870512430
C           19.65717526146993       19.07663293326635       18.44239571516290
C           18.49989715165088       18.73786704362796       19.40361219791744
C           17.01026308575249       19.84384247446251       17.92804302710537
C           18.15076429402052       20.04056017645602       16.93590536758871
C           22.09646358026222       20.55366019090038       23.55522572603159
C           21.71130334556012       19.30176992121454       24.34082956156382
C           20.19986590214324       19.27892012512759       24.56233451719212
C           15.09250709585912       16.72606999369311       21.00649164085192
C           13.97159023742323       16.51978556121972       20.17133454141145
C           13.95515651172898       17.00207264280698       18.86711973899560
C           15.05327749880116       17.69314854895783       18.41813512902137
C           16.17360395903880       17.94815397609365       19.23987688085646
C           16.18766677393445       17.45858870790193       20.53557656326601
F           21.24600531691145       22.64215029103988       13.78950898162934
H           11.40744938094248       16.97110904577314       25.48640264520287
H           10.20928441956890       17.97410774369780       24.66262309585409
H            9.77806009830775       16.34190990717394       25.21858139875321
H           11.73523447843880       17.03230799172111       22.97458090576918
H           10.02446522550972       18.09058122154395       21.84659125975342
H            8.70183554150381       17.04599478719980       21.24767083863748
H            8.61968921767489       17.73509529525718       22.89361146326787
H           10.96810223065575       12.41780073347974       25.50425713405043
H           13.12488415555479       11.59352218102596       24.52654851699068
H           14.30527635250517       13.06791215192077       22.89688968647065
H           11.12171691027521       15.03416602299292       21.05505585558744
H           11.43962669675089       15.95941153359345       19.57845637552671
H           12.92168688407163       14.10112590367488       18.75944765284610
H           12.52723648441012       13.16608616344354       20.20603499369140
H           11.26086879852575       13.55972171540712       19.04074122847228
H           15.57756748604398       14.93419747067098       23.87031735181877
H           16.77534293537877       15.90846870836291       23.00700370776832
H           16.32585774359934       15.67244844135811       26.06756885808745
H           17.63046491400715       16.54076908381682       25.25677026226309
H           16.58437826021492       17.38414512790060       26.39874143208589
H           14.19056289081574       17.76448078177360       25.87552120444047
H           13.55349533878810       17.43327899028830       24.26369080957295
H           13.89072741748350       16.09911756560151       25.36925986366125
H           15.84975461617679       19.14754667729799       24.64738382922330
H           15.42719374217141       18.56926909186625       23.02042782575349
H           19.67674162989692       18.51395266358730       22.59398969951859
H           19.58332247133679       21.41694561488454       22.91324224508946
H           19.92900976907957       20.97032682978680       20.27206388364467
H           22.26702161870492       21.75145969612498       18.65018290126133
H           22.29772335332778       23.90508216069557       18.06313068246198
H           19.56928357451959       25.24465689286037       17.77951491505417
H           20.88151184959089       27.20969374144913       17.03134673740530
H           22.37910574979334       26.28595151986599       17.15626335701695
H           21.18485864017867       25.86558734158696       15.93332796842409
H           21.93027122592333       25.80363719476031       19.62370585863550
H           20.49109409564411       26.81393095489605       19.46817614973638
H           20.34878113705896       25.17450394210219       20.09946587374567
H           22.17328917750547       20.00482470474616       15.57066601734006
H           20.51748851093129       20.54151869404998       15.28964494625841
H           20.82957146029278       20.26742809600674       12.83097290219531
H           21.18045862826425       18.73104917869508       13.67328624072283
H           28.90634010128882       18.77617290526620       13.55736537960908
H           27.21522021958038       18.26021042624999       13.78209028232683
H           28.52650217804627       17.09374230451549       13.97984590048751
H           29.25387574549758       16.80014900378344       10.47038139242672
H           30.06445124970566       18.06075379339011       11.43648864168860
H           29.80017490244261       16.44034974245141       12.10425934562430
H           26.20606820241601       18.35707359668486        9.31274968094985
H           27.92957979994327       18.01559037418401        9.17718906274470
H           26.83188113828882       16.80303167734231        9.86913316250676
H           27.87367143011789       20.35677739413489       12.06432081437258
H           28.77743810147011       19.88579860667660       10.61575426224695
H           27.12526173520504       20.49002368690273       10.47183021928970
H           24.38884031427602       20.93749726737939       12.28820476527091
H           22.74877929464287       21.57106795913182       11.99598144005500
H           23.79567551694488       22.87407650411928       13.78870755592637
H           24.14659987682359       21.41387266079813       14.72116887293746
H           19.60336432227685       24.26802775798055       15.40608105680232
H           19.59649671470306       22.50812315116109       15.25359796475720
H           19.04520329147720       23.24869398173757       16.75499040562066
H           21.79594322847858       19.35975701680801       18.51400656427812
H           21.11027816879549       18.56974697830189       19.93749530024138
H           19.81080887884139       18.19736789250445       17.79152883607260
H           18.42705204895433       19.51072482703592       20.18661438342446
H           18.73018324832641       17.77771941376989       19.86660890249873
H           16.06353238338544       19.78935739699102       17.39717025718114
H           16.98654914574032       20.71169779330075       18.61053938160316
H           18.00579762402716       20.95353975453661       16.35876302907633
H           18.20509360569457       19.17264765752228       16.26229851562442
H           23.14855267420918       20.54475153203623       23.27091496296001
H           21.88732541587365       21.45253750705039       24.14472810083942
H           22.22899749181295       19.30002368464923       25.29844405223292
H           22.01655663158805       18.41659782565051       23.78052077024608
H           19.90171729050391       20.12128871168075       25.19237647138891
H           19.89391717806126       18.35508267106869       25.05056744636332
H           13.11899285883698       16.82579469491705       18.20959951108183
H           15.06964766304054       18.02863739911034       17.39326389541500
H           17.02724680200912       17.62885420259930       21.18887501946738
