151
 energy: -221.329463269863 gnorm: 0.009176077899 xtb: 6.7.1 (edcfbbe)
C           10.00078956430286       16.96100253598333       23.81197483906632
N           10.73442475208030       14.28620594839503       24.30127648701294
O           10.02869965236573       15.67741868589305       21.71760501119148
C           10.82498053464502       16.17323149290899       22.79198385589142
N           13.43237852142693       15.33835999328382       20.89341271745448
O           16.92309837394017       18.88842611010048       23.77341854646860
C            9.60631163169980       16.66874609650105       20.80558846904765
N           19.59949257208153       20.99571424230028       22.78903496769301
O           23.62980808720943       16.99397528227509       13.31347333842533
C           11.48271326772482       14.97469059299714       23.45257052271234
N           20.98767362570374       21.07937953247928       22.90674112442814
O           23.24792066060078       21.64316549307240       16.87925600489458
C           11.25374139962874       13.24191761408569       24.92230045714263
N           21.66072356945767       21.84249161730227       19.51775520417175
O           20.02528451417262       23.40589052023840       19.53119061651283
C           12.56426130551672       12.82595562316842       24.74404416390735
N           21.40559926577179       22.92388524995809       16.75369342822800
O           19.78358284742522       19.98677251192301       18.11063046332079
C           13.35440219996645       13.53976253120922       23.86275188035247
N           22.75105781644997       19.08164962230003       13.22403225576764
O           22.99439778293302       21.17969489004346       21.89396516381587
C           12.81764644011865       14.63479143316192       23.18745123597517
N           27.61797939914076       17.90067466379156       10.22235897454255
O           16.95256637201456       21.09318773092596       23.37332607743286
C           13.66959110166818       15.37150319251895       22.24823394673463
N           17.65073747519122       18.42111970885684       19.09048508853727
C           12.53165971722410       14.43220968133157       20.22646456014946
C           13.17781046027729       13.06291469947445       20.00694164455561
C           14.78564900949028       16.13062960238542       22.52339917553177
C           15.40205158018220       16.36321395804097       23.86653315685893
C           14.98771063694480       17.65991319558161       24.59465520770967
C           15.59746462976829       17.65204936397964       25.99924536528685
C           13.46759208987212       17.76279141446449       24.70023680176544
C           15.48547893083460       18.89223951628762       23.83323221721776
C           17.52428986982326       20.03581426980454       23.54044085349710
C           19.03794730868185       19.89472344569464       23.56040410629728
C           21.77454120588851       21.08110916106206       21.81982401899953
C           21.05561437998026       20.94667201593695       20.47408292100591
C           21.09175921991907       22.97988752920742       19.10701321465217
C           21.86115380229865       23.63526997941001       17.95317840191887
C           21.69218229491589       25.15552804893095       17.85999900650227
C           22.45590944218656       25.69714066011915       16.65344774034478
C           22.21127399064238       25.79192510581965       19.14892094551067
C           22.18933202131649       21.93666055923169       16.31118270984499
C           21.88581107347371       21.12568276974466       15.04470469962097
C           21.85923432621777       19.64099408380236       15.42107309553916
C           21.70286587392473       18.77913792396620       14.17067722908845
C           23.66581513359539       18.15383702116997       12.89747510787065
C           24.70901458493774       18.58060197613154       12.00487535819367
C           25.66020907989947       18.73334657515790       11.28227959525441
C           26.80050407938510       19.09824353431402       10.45055356331405
C           27.92474629601386       17.14160387143720       11.41726722111865
C           28.81878261963398       18.12361868864410        9.44406385555044
C           26.23576335546609       19.60664404365102        9.11198930872347
C           27.53413888175819       20.24545764901417       11.18183950462139
C           22.79698361682351       20.46076249132459       12.80153880661116
C           22.98280180798512       21.38996062311120       14.00507344983687
C           20.05125296644052       23.21978089946499       16.32895594272426
C           21.17325698873801       19.48861131459350       20.00110827777734
C           20.00034142991262       19.02658401190653       19.13327884497530
C           18.73483069468777       18.77298569470734       19.97611746146383
C           17.41836076816504       19.49064730150544       18.14277488587676
C           18.67800875372787       19.63484848060880       17.29795355737205
C           21.54354420594030       21.12663435236378       24.24989027424800
C           21.04317219714481       19.92523844921489       25.05083782126628
C           19.51611126304959       19.89248670418587       25.02459758449572
C           15.27382877611620       16.59330925908414       21.26404539840221
C           14.41280320774307       16.06446055061200       20.27455163376138
C           14.63110168740091       16.32233547904372       18.92677056346607
C           15.70054910776013       17.11355626795466       18.58333626217891
C           16.56427538409945       17.66826876780582       19.54970617851695
C           16.35495273693672       17.39600191893367       20.89109274690627
F           20.66946059126448       21.44652448599318       14.44149052555051
H           10.61060637856807       17.17011695186817       24.68643595620182
H            9.65962022404657       17.90287190953551       23.38804457174809
H            9.14382012937505       16.36184683993466       24.11020628424963
H           11.61187415513129       16.81653034530521       22.36660296957566
H            8.92630724385101       17.38856570403257       21.27297852491483
H           10.46921504713107       17.20464956301898       20.38725486662970
H            9.07981024797976       16.13815443870527       20.01270654043564
H           10.58748225213110       12.72399585697393       25.59788259377374
H           12.94897084487175       11.96964017436462       25.27244917584767
H           14.37995325780368       13.25481907359135       23.67929113860582
H           11.62767862521334       14.32131519670955       20.82744997677281
H           12.25572882833757       14.87308706133797       19.26651552127759
H           14.08978843295132       13.16140169978123       19.42241534504669
H           13.42532124728561       12.60739851971066       20.96302072835651
H           12.48727357527584       12.41294235336787       19.47896335323417
H           15.14093598220441       15.52618892339974       24.51788731907552
H           16.48705978065217       16.37906266703160       23.75104289066465
H           15.21078885890368       16.81222089028041       26.56960324662133
H           16.67898303076357       17.56624172484176       25.94317137915175
H           15.34672398590058       18.56934929547970       26.52554799494422
H           13.18249407425455       18.63851090867008       25.27663530631778
H           13.02349745218488       17.84086183334490       23.71308128314701
H           13.07148541326374       16.87811985018109       25.18739579384826
H           15.16652663856122       19.81438759022788       24.32874841701265
H           15.10181835802880       18.89945131387401       22.80939326866812
H           19.32370553255184       18.95535305793686       23.07629969431206
H           19.15752995252256       21.86978331068668       23.08034010354703
H           20.01624982425825       21.25597976357503       20.59010242784406
H           22.55254971813845       21.56861881691329       19.13354413437382
H           22.92550803795570       23.40897690834737       18.06251546384940
H           20.63240672466445       25.40169936760209       17.76652921706113
H           22.15429594509670       25.19399734697654       15.73951196780502
H           22.26733142449687       26.75969639249957       16.54013256293688
H           23.52507533304090       25.54655852238315       16.78790713326708
H           23.26104602805520       25.55132354991538       19.29957446562625
H           22.10666533836886       26.87209213856333       19.09752292473068
H           21.64573313194941       25.43022671026330       20.00377290964068
H           22.79420461691255       19.41875366859576       15.93185232792360
H           21.03706720498036       19.45997274968457       16.11030515099148
H           20.73142811354682       18.97917169718410       13.70447627891335
H           21.77308160424487       17.71936777544351       14.42191302494357
H           28.34058715418429       16.18211822129823       11.11189684974586
H           28.65861385959514       17.63819270561831       12.07244085906625
H           27.01622092519251       16.95698584766417       11.98623861215621
H           28.57580006323455       18.63753533453481        8.51846746801847
H           29.58825280605468       18.69393301280920        9.98740940540771
H           29.23977292628863       17.14925210360080        9.19299289081818
H           25.41820300980156       20.29725118560624        9.29981854483826
H           26.99873060823508       20.12613015930160        8.54098959845082
H           25.86112542795478       18.76646056782958        8.53443744596365
H           27.88002380307481       19.91127931460611       12.15767265074668
H           28.38520772703481       20.57665008233065       10.59497552442652
H           26.85789087585265       21.08360543679687       11.32390849101839
H           23.61664161779322       20.59164743628806       12.09522956694835
H           21.85023875930461       20.70343000609099       12.30683722923543
H           22.92265540419834       22.42768148080146       13.67537575420667
H           23.94695761223381       21.22048108740516       14.48304882385467
H           19.51811603921255       23.65309954975306       17.17235898261994
H           20.04866044825048       23.92182228757622       15.49568976618473
H           19.52548311399522       22.31654625013635       16.04051898968594
H           22.10060173852733       19.39794436193694       19.43463188910851
H           21.24074389604255       18.82699807515890       20.86425581326705
H           20.26912779832045       18.06887707372715       18.65265692617970
H           18.50325594939450       19.66898436057038       20.57584038191406
H           18.94220943803916       17.93462408443875       20.64195394612211
H           16.56275902219357       19.27073447501369       17.51116837427049
H           17.24020397040347       20.44230223264472       18.66723927115407
H           18.57271894077279       20.43414946109664       16.56296723930324
H           18.87854985313403       18.68175566953687       16.78680170146324
H           22.62903517963430       21.11710272559327       24.14530283101338
H           21.23623291669136       22.06150018737313       24.73235933969271
H           21.40010263414606       20.00185218078326       26.07672453573136
H           21.43884851806572       19.00774300001357       24.61365308566787
H           19.11512622091385       20.77416211188743       25.53158333076414
H           19.13950904952977       19.00217051296539       25.52670822102804
H           13.98632418274568       15.91917498009034       18.15855063932535
H           15.90011963663839       17.29504775360319       17.53906692446784
H           17.00604246612279       17.79515390947970       21.64964621955718
