151
 energy: -221.329968724182 gnorm: 0.009619122976 xtb: 6.7.1 (edcfbbe)
C           10.49630407814048       17.10700772544260       24.51521441759844
N           10.94786844449984       14.35558531518114       24.45648116400870
O           10.27970602794440       16.35793478474604       22.18657454586072
C           11.16668893197112       16.47150478183825       23.29934466586839
N           13.15779128552915       15.57068580356437       20.79599213035141
O           17.36097578882059       18.47366610559225       23.36243240026748
C           10.04026506878376       17.57292148598068       21.51086192184790
N           19.88167271979926       20.69056669094340       22.62993675040345
O           23.02342834724817       17.25804109546278       13.75795610638242
C           11.67364878691769       15.07695023539261       23.61582587848482
N           21.26407341552838       20.81173107094088       22.45010107994388
O           23.19387567193947       22.50835014460121       16.50777010854090
C           11.35432204969619       13.13997399377406       24.78066043837676
N           21.27464142061735       22.01518179537704       19.11652255565868
O           19.47565256929966       23.38096845515299       19.24724745441809
C           12.52667864166116       12.57757388782972       24.30134216726427
N           21.07560169180164       23.27177599295199       16.46775863331361
O           19.33011252734170       20.27888577121500       17.68242799799654
C           13.28716872874494       13.32002381573157       23.41503502593823
N           22.55846259524606       19.40037926198184       13.16568665725241
O           23.00675492378740       21.13563751493229       21.06570602167579
C           12.85838434453532       14.59125338437006       23.04193123860825
N           27.86928642725708       17.45381042944070       11.75000287728357
O           17.63725931757795       20.49017092115195       24.30059318286695
C           13.63549834275804       15.36950832539197       22.07073727345853
N           17.26547054363793       18.63433945105487       18.70993117101572
C           12.05320824074972       14.87088304101108       20.19099037437677
C           12.47997249039117       13.50820492720625       19.64906514407783
C           14.85573242614091       15.98740856044109       22.23160925009282
C           15.77117993327251       15.89912104084137       23.41357222876199
C           15.70018016316541       17.04217812263309       24.44839156796058
C           16.73409430569266       16.77194640064688       25.54574501744258
C           14.30868558881038       17.12510992321995       25.07282866500316
C           15.99027305910804       18.39394429321468       23.78599058612491
C           18.05878153531482       19.53462995632428       23.68920951349143
C           19.51375858962417       19.42476122868682       23.25869847178775
C           21.80031291666105       20.99701006870524       21.23622502474197
C           20.83028414773035       21.00845803828929       20.05145431720820
C           20.58352403564171       23.11518036726461       18.80121762473137
C           21.29636782913263       23.96491789679040       17.73632861396219
C           20.84800704849005       25.43186894576840       17.70598413606529
C           21.55182991351717       26.17304522515757       16.57170754914362
C           21.17095487157916       26.08629981447577       19.04762551715171
C           22.09157910792888       22.57280971602244       15.95597320907855
C           21.89122243930227       21.74456473702402       14.68010141678908
C           21.44669916870195       20.34074594633228       15.10956966479909
C           21.30995276052179       19.42685600581929       13.89240737508807
C           23.35241573784853       18.31421868504539       13.21549290624791
C           24.62501392450388       18.45861507043886       12.56152122375897
C           25.72664381463332       18.44602189009329       12.07596405258871
C           27.03674622125348       18.62884191963483       11.46477065418435
C           27.80788806003319       16.98774829071719       13.11901294475774
C           29.24250057372809       17.57095147308631       11.30430537327458
C           26.80712380746590       18.73672258916222        9.94627403148124
C           27.59636689809139       19.96192927968458       12.00816741116873
C           22.98493238043702       20.69461513915034       12.68817163963029
C           23.18276527007611       21.65678430409044       13.86307642172276
C           19.71674621670081       23.29272583725366       15.96472411395913
C           20.87144323534917       19.61238732729572       19.40510838611204
C           19.62096032685477       19.24110715455753       18.60369065474023
C           18.42670291927814       18.92707029479668       19.52194894385398
C           16.97155770721358       19.76491434719457       17.84938352619493
C           18.16813188387511       19.97480173114572       16.93163970702667
C           22.08641273029461       20.65568987551883       23.63854302284386
C           21.83071498102785       19.26689585839891       24.21893531513501
C           20.34204942526706       19.12159789160186       24.52503387310133
C           15.14886865060098       16.61809296421505       20.98356367018170
C           14.08182914738916       16.30989301419043       20.10891421339663
C           14.10179461267881       16.73657555915772       18.78712812566628
C           15.16607874300169       17.49516059400007       18.36372511441839
C           16.21365041334986       17.87306494439079       19.23135029793522
C           16.20620009112290       17.41371491392759       20.53904025165852
F           20.92740630817166       22.30954448389702       13.84133727504234
H            9.59962515789144       16.54712310194780       24.76313082976239
H           11.17668263299269       17.07944747582091       25.36134783746258
H           10.23422004050954       18.14102150359536       24.30532754899964
H           12.02507317665723       17.08780207140931       22.98068623691836
H            9.41259867898685       18.24773736922728       22.09909321163852
H           10.98359126227631       18.07644012109334       21.27103077847643
H            9.52684402147585       17.30702075150895       20.59168747204362
H           10.70404155279144       12.59552764608008       25.45113747790909
H           12.82793034469977       11.58787970196184       24.60411965780785
H           14.20085073456806       12.92401911416688       23.00434382885803
H           11.26074429867957       14.75053120540452       20.93266689715207
H           11.66623514262381       15.49248569975356       19.38013578409495
H           13.31307213866334       13.61683522030807       18.95877113961819
H           12.78560014624018       12.85754101765362       20.46321719348512
H           11.65048594922613       13.04298731672015       19.12771362851287
H           15.56470228082490       14.96699135821293       23.94443967878455
H           16.79446042927358       15.85504858664999       23.03469787334156
H           16.47764946745812       15.86244426008200       26.08304578466628
H           17.72600582285476       16.65089068087629       25.11703965415652
H           16.76231556069405       17.59667260895841       26.25537819357276
H           14.30606901424486       17.82836619850814       25.90273568791170
H           13.58355671847464       17.46004674777322       24.33760879207688
H           14.00006167634830       16.15018169641631       25.44139920621429
H           15.80061099038661       19.21631601509368       24.48169168226181
H           15.36820573753124       18.52132124543283       22.89690127669243
H           19.63120657199115       18.62507276508169       22.52273992233124
H           19.54659155420701       21.45514769697992       23.22148587168570
H           19.82717023676190       21.28159145805578       20.38128334606914
H           22.21409150957620       21.89911475683127       18.76163397243236
H           22.37473478659944       23.93167412626025       17.92354492763039
H           19.76611589836137       25.47508258298970       17.56089233402790
H           21.33774387019451       25.71908417734108       15.60838406858951
H           21.22493813165435       27.20836362348419       16.54538402360895
H           22.62893304665248       26.15340754696918       16.72445219442277
H           20.87721411305516       27.13230840273594       19.02888124411804
H           20.62910523621531       25.59274153708776       19.85066213022375
H           22.23690564747983       26.02832683108888       19.25746238088045
H           22.21604871112241       19.94971268233741       15.77790461744237
H           20.51096922663309       20.38609341158076       15.66361674889265
H           20.52317581890680       19.79720099156497       13.22950220242264
H           21.07823561848545       18.40726446133137       14.20504369963121
H           28.23653632937719       17.69579020976614       13.84470243547086
H           26.77276962797472       16.79321688451438       13.39561756223668
H           28.36330352710970       16.05370707632695       13.18632560970930
H           29.26957967834683       17.91887674323502       10.27695834488915
H           29.84485711385503       18.24370221250570       11.93104239270118
H           29.69322587821756       16.58044569951465       11.34401707795002
H           25.94534854422740       19.36811627053473        9.74654694665716
H           27.67238103977062       19.16999889297621        9.45347691141080
H           26.62098593816323       17.74711837591751        9.54090527527883
H           28.54922574119186       20.18697474893586       11.53884115169396
H           26.89828736394923       20.76719480136466       11.79218537446938
H           27.73331786174654       19.90742807892770       13.08643371989038
H           23.91414451061120       20.58622480817455       12.12993153877272
H           22.20850912143418       21.08780174904843       12.02359361513154
H           23.44391884557773       22.64792899058123       13.49366653316328
H           23.97950732468288       21.30955897395247       14.51932721595646
H           19.60010077243854       24.04242468147089       15.18221591734737
H           19.43732408717951       22.32216106812876       15.57045199280800
H           19.05154627291464       23.52317932451172       16.79260517528768
H           21.74038670722940       19.58501506731212       18.74709367901954
H           21.01174313258388       18.85727039279625       20.17784311918045
H           19.83798806099360       18.32416468607208       18.02756113641946
H           18.24280776258554       19.77864609499101       20.19857468143667
H           18.68732409547223       18.04844527620959       20.11239608370035
H           16.08048238541386       19.58168521302042       17.25313069059185
H           16.81947979204435       20.68069022962852       18.44687123936650
H           17.99679661023130       20.82218541569218       16.26862267682832
H           18.33729440065325       19.06371964431423       16.34250820688682
H           23.12529288021960       20.79023195089058       23.33807268310986
H           21.81080871157914       21.42992487490390       24.36070830241670
H           22.41790761174761       19.12599645977487       25.12573314917066
H           22.13536632726997       18.51422462818665       23.48928463794273
H           20.05295387277811       19.83018666848994       25.30495381097661
H           20.11679723114829       18.11426686638550       24.87329547092348
H           13.31374375115266       16.47579892045326       18.09892571461313
H           15.20601950547206       17.79039616275339       17.32863483391604
H           16.99651028548515       17.66652116272881       21.22526877315321
