151
 energy: -221.328451878201 gnorm: 0.009389392737 xtb: 6.7.1 (edcfbbe)
C           10.89211713614171       16.80874045815492       25.63744401031524
N           11.09340200551210       14.18119555956797       24.77678928778230
O            9.96062848000433       16.59964098952511       23.36955013039659
C           11.14280021803832       16.50589288193779       24.16150066816610
N           12.64959207697833       16.23834928467572       21.05782118092547
O           17.52794861410858       18.05457899613292       23.37550336125419
C            9.41961601330842       17.89870034977609       23.27289059190991
N           19.88500218277337       20.41515157344408       22.26218469909374
O           23.70999257393402       17.20842461807825       13.85990047374031
C           11.65215270345873       15.08734972487029       23.98673375291808
N           21.25509059924079       20.57598369449908       22.04651512436464
O           23.19573035603210       22.72207838007108       16.55843456058017
C           11.45880840182536       12.91713967202329       24.67947206866420
N           21.06804968711725       21.83891768375412       18.75944599495108
O           19.19063113622792       23.07992500434315       18.97020488874611
C           12.41869261388938       12.47385391420696       23.78162381482872
N           21.01598347852038       23.19397594364300       16.25136124495198
O           19.08364596658034       20.20165106264940       17.38392423497356
C           13.01425899496274       13.41231152564031       22.96079573924567
N           23.27183883216630       19.38135239125729       13.35765062688475
O           22.92096555755469       20.93951101259796       20.57650966770140
C           12.63537675353926       14.75351309440250       23.04656479789757
N           28.71532759736742       17.73322709597662       12.11632249765095
O           17.60731534677965       20.26080693750235       23.74274515749891
C           13.29948575136623       15.70679419029697       22.14662759219675
N           16.89171893075423       18.83109008366666       18.59986862754581
C           11.32813028734259       15.88618521425431       20.60128827058651
C           11.35305383401692       14.64937883285709       19.70610749384486
C           14.62046038167731       16.10056670710187       22.15438306882199
C           15.68941233099774       15.67313755177565       23.11041370694258
C           15.87907125347902       16.55965077902487       24.35973649399183
C           17.01619991819164       15.98617246751025       25.20894933233505
C           14.59837208250626       16.60546834811920       25.18935968581545
C           16.21158943002045       17.99560801853167       23.94505129661631
C           18.11747255859620       19.22774432690379       23.36208687280177
C           19.55921303867368       19.14583307545339       22.89529455135352
C           21.72826915311822       20.77733111371768       20.80953379820287
C           20.68381283432525       20.80856729109165       19.69228282148150
C           20.31558795450295       22.91986163607972       18.51894025481956
C           20.99164536545053       23.89042630200667       17.53787968219912
C           20.33079453576249       25.27269791265432       17.47360732948626
C           21.04216873662110       26.14660596921028       16.44310274084729
C           20.39419739425525       25.92830925867631       18.85241882077333
C           22.16559647389947       22.62111916283179       15.88594243232921
C           22.21656418251094       21.72212553435180       14.64473471700572
C           21.83207398506762       20.30603934285791       15.09236081958544
C           21.94091397033229       19.33609534702886       13.91834359395737
C           24.05958163916531       18.28970111830798       13.37170831705735
C           25.33973350000842       18.45110146968578       12.73272432325257
C           26.43204867553440       18.41634351085149       12.22296496756332
C           27.68138816105789       18.56156892779537       11.48313911497965
C           28.81849592098000       17.90229479340736       13.55087767553963
C           30.02136132901993       17.81578704519764       11.49619291286234
C           27.39193108756666       18.03520305973805       10.06555574610299
C           28.00955038935059       20.06934993052069       11.41923175069962
C           23.68031732119710       20.68387154424652       12.88766341121967
C           23.61384593960772       21.71103411176020       14.02136447553265
C           19.72451186424544       23.02246476829784       15.62041962488392
C           20.63164623495088       19.41859657794364       19.03504046260460
C           19.32263560486684       19.13746164741655       18.28698635894285
C           18.16822259993050       18.89601578303020       19.28238664840056
C           16.71274236824108       20.02849344929080       17.80012185047163
C           17.82427414028593       20.06006060942283       16.75667365731614
C           22.12701900901320       20.41574970200143       23.19867458027829
C           21.90501914945652       19.02497843412868       23.78855908455105
C           20.42750514820671       18.85189382420329       24.13736884609001
C           14.80380811333049       16.91645146134613       20.99542887784825
C           13.56218152780152       16.94565763551781       20.32197732412296
C           13.44344924971957       17.58173176997644       19.09364201683343
C           14.55470610116880       18.19333027008934       18.56276438175925
C           15.79591516634458       18.23324516696501       19.23464177499379
C           15.90625104940476       17.58744246756193       20.45938018017424
F           21.33701606364265       22.16592098229679       13.65108605449620
H           11.79862597843116       16.61873531191129       26.20290850159446
H           10.60220237919276       17.84663677490615       25.77556121783182
H           10.10515487511775       16.15685801560279       26.00360056435324
H           11.88256139704206       17.21418380035860       23.75125994538731
H           10.20108045804374       18.62984221998823       23.03564642515231
H            8.69618692140846       17.86313415190426       22.46140069978758
H            8.91439293311418       18.19581409942124       24.19582239954766
H           10.95697906431440       12.23688279735328       25.35423512848120
H           12.68608930122196       11.43113794944150       23.72722455204613
H           13.76523443283841       13.12255991804893       22.23971427470867
H           10.68943726017149       15.70790813322859       21.46934768142792
H           10.92789013568808       16.74028725663145       20.05044139117788
H           12.05580971911946       14.78848044317791       18.88684498825095
H           11.65738511879366       13.77546874019081       20.27789369859433
H           10.36400295326736       14.46929477547357       19.29633997847874
H           15.47107496589537       14.66122064607187       23.45716806149296
H           16.63604958313157       15.65037751085401       22.56788226983137
H           16.73987731565224       15.00385030906239       25.58201852976783
H           17.92365401043434       15.89132716531810       24.61936171136676
H           17.21989838423445       16.63290054144117       26.05862293176480
H           14.24648033820111       15.59934748908944       25.39464623932571
H           14.77298555295819       17.11262573360216       26.13423672782853
H           13.82307576496976       17.13963693814742       24.65176418241064
H           16.18432593055226       18.67133499424607       24.80625793539747
H           15.49532949228262       18.35754702521794       23.20033184696052
H           19.67343978698241       18.34524664269197       22.15858017548000
H           19.52216488423115       21.17414666670597       22.84217990471439
H           19.71099884302341       21.09193493355662       20.09725544886469
H           22.02930010080068       21.81574784407929       18.44447038782789
H           22.03634897917567       24.01618202819178       17.84286606182006
H           19.27935789794039       25.15704038699066       17.19955792659901
H           20.55280372444678       27.11364867537566       16.37318356264770
H           22.07750189509618       26.30309505489303       16.74025783429808
H           21.03820352149516       25.68413059540520       15.45981737940356
H           19.96456922467415       26.92444525133252       18.80943420757858
H           19.83420811071722       25.34395578588545       19.57692332815138
H           21.42427855579188       26.00848912642176       19.18992008122622
H           22.53342943407079       20.01753409945693       15.87732058812936
H           20.82552973754498       20.28535306676576       15.51143892941761
H           21.22091921257780       19.61450786231237       13.14152795884383
H           21.74833375842853       18.31286622188809       14.24542773402548
H           29.23129825850706       18.87942166301080       13.84755086223080
H           27.83661414783177       17.78478597985171       14.00523227410039
H           29.47342665495889       17.12484018062169       13.94003904439138
H           30.64451587816876       17.03343238263034       11.92703211978505
H           29.94048336636522       17.63553059918414       10.42843700689723
H           30.52199494062212       18.78096012081061       11.66473513252637
H           26.44725546866814       18.43860703713387        9.71184435884041
H           28.17387677387621       18.33557766698668        9.37592174619552
H           27.32580848354885       16.95217521147258       10.08745752381813
H           27.16766189469712       20.60434968758676       10.98720709857687
H           28.19834000314612       20.46673412217463       12.41403173078712
H           28.88363632120765       20.23672166833545       10.79533689058639
H           24.69791546724012       20.62099223129881       12.50185546543997
H           23.00726922439134       20.99363749288442       12.08122451203401
H           23.83693330047164       22.70313847541476       13.62855063581302
H           24.33678730390311       21.47935474561860       14.80318197574623
H           19.65944997604512       22.07613158753101       15.09667780314865
H           18.96471342470356       23.03150179425747       16.39953432984952
H           19.52944155578394       23.83068124206704       14.91451773790465
H           21.47156365738302       19.34041757234522       18.34579577784608
H           20.75069911667342       18.65711830477194       19.80396908015754
H           19.44364320541192       18.21156267884201       17.69555257337251
H           18.16318306309784       19.68854856023361       20.04806635313713
H           18.36804374032345       17.93862267586484       19.76246305556391
H           15.74687427114062       20.03544799227157       17.30612535084405
H           16.79913852493469       20.93172552807459       18.42597157466349
H           17.71328930607803       20.91554045355410       16.09255309347725
H           17.80418058155662       19.12833805979538       16.17320157376440
H           23.15088156686251       20.55453882063392       22.85282859031010
H           21.88243615876120       21.18833498155736       23.93438632142810
H           22.51713631889371       18.90214310694074       24.68024344808262
H           22.20368126261862       18.27437531732870       23.05514822698246
H           20.15149996954384       19.54924815479849       24.93344116464110
H           20.22922985690289       17.83658266821096       24.48109875653430
H           12.51412803322683       17.58156248182746       18.54478875990429
H           14.45935950386802       18.63574585543511       17.58421105236626
H           16.83065542186993       17.58116354026729       21.01247360869731
