151
 energy: -221.327944937146 gnorm: 0.009047007489 xtb: 6.7.1 (edcfbbe)
C            9.75574768407887       17.02074170264738       24.39348450797986
N           10.77846519371926       14.51574520900798       25.10554622688476
O            9.59344360697591       15.38603729820084       22.55838389789104
C           10.48463821052459       16.14656442076387       23.37335121208230
N           13.00967024430146       15.44116027440620       21.27295690685785
O           16.78382117778602       18.93508100414419       23.57648049420023
C            8.75360437070148       16.14555837339444       21.71548523923321
N           19.73287413806814       20.62875732301237       22.66820593746081
O           23.97499167143344       17.34074395512132       12.75286023175202
C           11.35618008927908       15.12351942312628       24.07784278278328
N           21.10677111333354       20.38644309651472       22.59503503766691
O           23.65127322333592       21.97101077915346       16.90654059215749
C           11.44583465707949       13.60263167468446       25.78533652580148
N           21.46861342042791       21.51632536901052       19.32187566714222
O           19.79146334327986       23.03272198411162       19.41004299140811
C           12.74535500170381       13.23173020944951       25.47677720048948
N           21.57555013977792       22.82473733470005       16.70571630445691
O           19.11537992891948       20.07009402700323       17.91308810557806
C           13.35606457301917       13.85859422902409       24.40785712855578
N           23.56733175785752       19.55979755483445       12.97543352014009
O           22.94125489723365       20.14036340431424       21.31691819609818
C           12.66700872809132       14.82996891142728       23.67750677261042
N           28.45256503312606       18.08131476963917       10.16312938267062
O           17.23810905688793       21.13319824838252       23.70299502698367
C           13.38287683354431       15.51610977908352       22.59543955485784
N           17.06432850432475       18.40766461843651       18.94000165195806
C           12.06327296399732       14.50003738012233       20.72453965322048
C           12.72326970779149       13.15030681151962       20.44445231787782
C           14.51868077858654       16.28621702422480       22.73013123701040
C           15.22866550999030       16.60523411445969       24.00829172718040
C           14.85004597748616       17.95667740832263       24.65669176482152
C           15.47612182328159       18.03252031738227       26.05200648919730
C           13.33341754277194       18.09711910874471       24.76775522273637
C           15.37835652127850       19.11356908148464       23.79881886141568
C           17.57965775653939       19.97920719512923       23.54370168238332
C           19.01875336962688       19.54080087779544       23.31785135731100
C           21.73323355996077       20.33125259265659       21.40946209226843
C           20.85593966617699       20.52168146009994       20.16985722663157
C           20.88882062307146       22.68011499110209       19.00256017416087
C           21.72344890510858       23.48721575196565       18.00135628780662
C           21.36166580920182       24.97788779814272       17.94410711385803
C           22.17452272703010       25.66999598520911       16.85243190195212
C           21.65296069367607       25.61427269230521       19.30221899821466
C           22.62419469953124       22.14008947487069       16.24142934496469
C           22.58393213642186       21.51698263147190       14.84042317415945
C           22.20132901779766       20.03838858163728       14.95681148647158
C           22.27303238624557       19.36115600516543       13.58818135884918
C           24.30163802010014       18.51277702779162       12.55851901683551
C           25.48738254281126       18.84219278893437       11.80993133437259
C           26.43861432331191       18.94797083645818       11.07760127963052
C           27.53505920970469       19.22674309902798       10.15318322478537
C           28.95090974567687       17.73931628410733       11.47916227692841
C           29.53886645016869       18.14892177905005        9.20817175515843
C           26.87749430728603       19.36471242540012        8.76788224372843
C           28.18259331276468       20.56756661676258       10.55756999748054
C           23.95415609946896       20.94175574342726       12.81699887723608
C           23.95491828309602       21.65098386695795       14.17207501058216
C           20.24723148759346       22.84918624858064       16.12820652240636
C           20.74509466222657       19.16885659230608       19.44211919889826
C           19.40922320228362       18.94628157537784       18.72844000660929
C           18.26195872095553       18.66020339388225       19.71139678769990
C           16.73647783529756       19.58190583945341       18.15002610618782
C           17.90439108690488       19.87838509727423       17.20789857354451
C           21.79051291766165       20.07950244499975       23.84435000495620
C           21.12372459485271       18.86103643634417       24.48482777024670
C           19.63402539122179       19.13783610034653       24.67287426151675
C           14.87940322045528       16.70555247255086       21.41350035673268
C           13.92148437971797       16.14804768345929       20.53384751606995
C           13.99957671369786       16.36901519691020       19.16221013904824
C           15.03340542521950       17.13886457462212       18.68382553426096
C           16.00398083778680       17.69893788674322       19.53794836549552
C           15.92691668482711       17.47663488691014       20.90234968557208
F           21.66589127326517       22.17323581880254       14.01555618640424
H           10.48206509938758       17.48117041949530       25.05608610093226
H            9.19133272848990       17.80469326783382       23.89616587113301
H            9.08599321125748       16.40060393637498       24.97925723732071
H           11.10671138386971       16.77887163200992       22.71753591046281
H            8.26344016926451       15.42502918974224       21.06180025351451
H            7.99415506709495       16.69105712672960       22.28313172007257
H            9.33929554507256       16.85245924592957       21.11486281100672
H           10.91042334923384       13.15913819119008       26.61328452129379
H           13.25823402790616       12.47829852893262       26.05282929444050
H           14.36427129082143       13.60212979051402       24.11696920270287
H           11.24025606298812       14.37155003730332       21.43087853430520
H           11.66243524529965       14.91973949980279       19.79919139928960
H           13.08527477608358       12.71118496135937       21.37071446644930
H           12.00030094863500       12.47257021746374       19.99825711814502
H           13.56301944919806       13.27154776324857       19.76352381028289
H           15.01206882714517       15.82321017115354       24.73595262850775
H           16.30190014739329       16.61255762312906       23.81995994822942
H           15.04745767705397       17.26671086745758       26.69562505952760
H           16.55349633652698       17.88123325373298       26.00064861444515
H           15.28403549209921       19.00742902670861       26.49960466666996
H           13.07011191156934       19.05042699157683       25.22197286405551
H           12.87881711862616       18.03889855932022       23.78223485073974
H           12.93327446922096       17.29181115461003       25.38106738551341
H           15.21905879408530       20.08190583346564       24.28146873960938
H           14.88635813221554       19.11512395789794       22.82086538066373
H           19.02965150106082       18.67807377005068       22.64302985798819
H           19.54776663099151       21.50468492939157       23.16015896567799
H           19.87728961957212       20.90965448454471       20.45724192192844
H           22.40047168179296       21.31293631533591       18.98599474166096
H           22.78123343743673       23.39616270880116       18.27150252059306
H           20.29387192990160       25.08294462866175       17.73833075954080
H           21.92292841175569       26.72647150962957       16.81073324519695
H           23.23809267251560       25.57275238554409       17.06475639679477
H           21.98289159914139       25.22998612109475       15.87528057754967
H           21.44849385592681       26.68022911131079       19.26490292586036
H           21.02638725046181       25.16990214825430       20.07207699428286
H           22.69510953498774       25.46892817298554       19.57563348250008
H           22.90503927679768       19.57427531553424       15.64908375667085
H           21.19440475565305       19.93634670309168       15.36319678945126
H           21.50649661428199       19.79073857524556       12.93298398984028
H           22.10968508075712       18.28693855086312       13.68501055352269
H           29.42450405256572       16.75970481713965       11.42266912292017
H           29.69514201704885       18.45453261108462       11.86340852751151
H           28.11934870260503       17.68293043279118       12.17829596995311
H           29.15640525272436       18.35140914795896        8.21269001092152
H           30.29763123947157       18.90385848535960        9.46472433243000
H           30.02388768567585       17.17416010041597        9.19309849527392
H           25.99731778316125       19.99885135940067        8.84288930156999
H           27.56344513744223       19.81469094563446        8.05607429093648
H           26.57329183975692       18.38362655020383        8.41231800590685
H           28.58280240085987       20.51124363822953       11.56768359347841
H           28.98640902628595       20.81211064700132        9.86766366729685
H           27.44204681485341       21.36120226793955       10.52200790754138
H           24.94739211774705       20.98526467046501       12.37372034651199
H           23.23785708063117       21.43863559040479       12.15241816750363
H           24.18409979652554       22.70752317926011       14.03115884086050
H           24.69943423814185       21.22150192222687       14.84147876868093
H           20.14581261025006       23.65288458588761       15.39870774865804
H           20.01589092886457       21.90187884888295       15.64957389002269
H           19.53321050513867       22.99777388369200       16.93425610941308
H           21.55670552891645       19.11522632643722       18.71534154839193
H           20.88563019991805       18.35496755540140       20.15301586423096
H           19.50541996486045       18.06070582059629       18.07541608406677
H           18.14368683293565       19.51943921785723       20.39161623057732
H           18.50971612348843       17.76684090199390       20.28410146785971
H           15.83109647948253       19.40560673505603       17.57260404883869
H           16.57652880530261       20.45715669423358       18.80421831033972
H           17.72631833292867       20.80460362443594       16.65851854394841
H           18.02145393161612       19.04113012336604       16.50366161431651
H           22.83528939889342       19.88567580274440       23.60176175467339
H           21.72446579120914       20.95159090447660       24.50539007941567
H           21.59292826415921       18.64934164222384       25.44481954742960
H           21.25850152623376       17.99354409747738       23.83396097206117
H           19.49336942064856       19.95408385824148       25.38574698908369
H           19.12371397594292       18.25236850136012       25.04880100920678
H           13.27898614973584       15.94147763761626       18.48096309696412
H           15.12225252614239       17.29922624045955       17.62028522568513
H           16.66306690153262       17.88922198086449       21.56942804652500
