151
 energy: -221.328394836636 gnorm: 0.007992938635 xtb: 6.7.1 (edcfbbe)
C           10.34318319856764       17.65749274722656       24.35047849320543
N           10.62844181317249       14.89479752798748       24.60475220295239
O            9.95167184402203       16.56830958967941       22.18225292486426
C           10.91582484729224       16.83061400000619       23.19837998473564
N           13.04179354944842       15.72597640088668       20.94706422000130
O           17.25275040199379       18.43990873112519       23.69314415468656
C            9.55459207710337       17.70507844666632       21.44574197676028
N           19.84839801131612       20.58325857889044       22.75613090956539
O           23.71105541185283       17.34632081650064       13.41023029946009
C           11.39703881572723       15.48108309935811       23.69901298590204
N           21.23989394234741       20.65437892598479       22.67498306314048
O           23.25577872582715       22.49763228753923       16.80086168589965
C           10.99238857566120       13.72932502338903       25.10910718219038
N           21.31737735394416       21.68716672798420       19.34035603263578
O           19.28393946810828       22.66497905751988       19.22360779399332
C           12.15925318790094       13.07685976306917       24.74417385979232
N           21.06453586006748       22.98195763058369       16.61775573784190
O           19.65383048627132       19.77962584736249       17.78995023572495
C           12.96510500318767       13.67594598352344       23.79237165772843
N           23.23064225312617       19.55081810203591       13.19867044487738
O           23.07157681052920       20.81226067836564       21.37332782470210
C           12.59067496877079       14.90036615624448       23.24136474121133
N           28.49330527647638       18.25852857775168       11.25000617700503
O           17.39153091682624       20.66380175828720       23.96082286616330
C           13.45458903448027       15.54409303942498       22.24667204693248
N           17.47022141618139       18.29287948010970       18.84223244573859
C           11.91879394360771       15.07051030744822       20.32502638732772
C           12.32382601095473       13.71771897390376       19.74142775979880
C           14.71906265271948       16.06393652335979       22.42476836873767
C           15.56270670197853       15.96976565004693       23.65700966745030
C           15.44695254703233       17.13163256114612       24.66583330547478
C           16.37092198509940       16.84496547766100       25.85267637785044
C           14.01041321444186       17.28245519790022       25.16131863131350
C           15.85200587865140       18.45203636887661       24.00249626318186
C           17.89611759365622       19.58502968339273       23.72276496269797
C           19.38492569999451       19.40731182830450       23.47928733882522
C           21.85391384792271       20.70977944114938       21.48319494402328
C           20.93635104540542       20.64072207171937       20.25821522272694
C           20.46711467873944       22.62524756263636       18.91204044890277
C           21.10553498192034       23.62049609981867       17.93333335747524
C           20.43746299513066       25.00186772697141       17.96519089458862
C           21.07058053806858       25.92393068217734       16.92638666010927
C           20.60044023330997       25.59398451908767       19.36414941327345
C           22.20187653665065       22.45075938316682       16.15999787608994
C           22.21786407455379       21.68494711418657       14.83172976034859
C           21.90298918808548       20.21638074204306       15.13259827369188
C           21.94218275882208       19.40826794185511       13.83977784789191
C           24.01165693420906       18.47338369417430       13.01050110264196
C           25.20525710061141       18.67058984279145       12.22900082777971
C           26.15478422334619       18.58254048608058       11.49255454851638
C           27.24376074625895       18.49728601186116       10.52117898008135
C           28.81246858544842       19.28024978855884       12.22577196639216
C           29.64294548442289       17.96099541239591       10.42149505585620
C           26.90095440496038       17.28079901432154        9.64006517774621
C           27.23487878170750       19.77777235272820        9.65819245728347
C           23.60092403140530       20.90910179154532       12.88084876408361
C           23.57997577207145       21.78736681990119       14.13808281933870
C           19.74881207282742       22.85667786002236       16.02441491151217
C           21.07487168290639       19.24002508358115       19.63661917465603
C           19.86509857782931       18.80557508270381       18.80082671392126
C           18.62199409035584       18.56075528566288       19.67839849503606
C           17.27282276503776       19.39927488989900       17.92497290418513
C           18.50165390976727       19.48503140159089       17.02599949769938
C           21.97398744300562       20.58532048023142       23.92946878887698
C           21.59505632491462       19.29365604162325       24.65343325885689
C           20.07971804807038       19.24124489222826       24.84608334852587
C           15.11063949078157       16.61029703228532       21.16383745833192
C           14.05158917026893       16.34476810808235       20.26540194354286
C           14.15931548819551       16.67580803560593       18.92018450760359
C           15.30411504454409       17.30527215405122       18.49706697068740
C           16.34584251339345       17.65560668568044       19.38319082221545
C           16.24876069649259       17.29010890948641       20.71814810220531
F           21.27243240213728       22.19968259401839       13.93300117526706
H           11.06794498142386       17.70797062861727       25.15706412587834
H           10.11450971890056       18.66735556984869       24.02117492968641
H            9.44106287074040       17.17719074061219       24.71636321619646
H           11.76277334668775       17.36839985602141       22.73781095011016
H            8.98772044581238       17.32744152825510       20.59706362085679
H            8.91852523680626       18.36972155177388       22.03948898348507
H           10.42869938565843       18.26363547683492       21.08681348851824
H           10.31684556793289       13.31420414257703       25.84364349687178
H           12.42704523491426       12.13377056136728       25.19075466486657
H           13.87719191999460       13.19892864321603       23.45847628044156
H           11.13104788352977       14.94067582015328       21.06953803071590
H           11.53649393304563       15.72243256472405       19.53528114730608
H           13.07610825675100       13.85059466281005       18.96325743724036
H           12.74280557291544       13.08243031357976       20.52309628487908
H           11.45312152891512       13.22255989776582       19.31557997681213
H           15.30538480421881       15.05273342675715       24.19006434473227
H           16.60652909978790       15.90066072474355       23.34557098259302
H           16.03207428605445       15.95891027205296       26.38303171581927
H           17.38777286642881       16.67434113638233       25.50928548602548
H           16.37324384152987       17.68409758854447       26.54440173469704
H           13.95350113920096       18.03916099800139       25.94053855922394
H           13.36057974850107       17.57683304608251       24.34378874227426
H           13.64926839100835       16.34028705855095       25.56733375905610
H           15.65180896260636       19.30151014436089       24.66396825483031
H           15.30011235871074       18.59639369406367       23.06872510374698
H           19.55879884565424       18.52422369404476       22.85817819684758
H           19.47085672896638       21.41659357233646       23.21030131479110
H           19.90770248044528       20.84571816931940       20.55753414622432
H           22.28503491528675       21.70380293172739       19.04718531523183
H           22.16481782847518       23.73703843274932       18.18474577281837
H           19.36985879449686       24.88987279553205       17.76120734228901
H           20.96779529827029       25.52308893033761       15.92160654689774
H           20.59461699693692       26.90004735285183       16.95923768512145
H           22.13101552356031       26.04960208225676       17.13600717470259
H           21.65292271497090       25.65678394922693       19.62815137930053
H           20.17279665375919       26.59137581530090       19.39935384527832
H           20.09261768493492       24.97578133927044       20.10040845953532
H           22.66947695406565       19.85669877080036       15.82092649671362
H           20.93553432857126       20.11174192133493       15.62266694913144
H           21.16863219763305       19.76962209790213       13.15527022845093
H           21.78503066555624       18.34752267657155       14.04171880165381
H           29.21328616519520       20.20136831454770       11.77548447441462
H           27.92195092086430       19.52525512559640       12.80160211909297
H           29.56476930847567       18.88087361164757       12.90586080464898
H           29.43421602404245       17.10562268593733        9.78592832478488
H           29.96105462830282       18.80874635367103        9.79606879593929
H           30.46921688985093       17.69877827245775       11.08136478571947
H           25.84598152769968       17.30998387885685        9.37742385218407
H           27.48571032448227       17.29081824200176        8.72365501620622
H           27.09364856931352       16.36441213334056       10.19245916950219
H           27.43579338871656       20.65507196189291       10.26656277850583
H           27.98878847801148       19.70341382104008        8.87891940027209
H           26.26199516149036       19.89446846477734        9.19050099805742
H           24.59578377372577       20.91219467092403       12.43585477906348
H           22.88246402872704       21.31061011267511       12.15743157623554
H           23.76274728124439       22.82547897052429       13.85888660956893
H           24.34667572890763       21.48144981965662       14.84877141149185
H           19.53369226935656       23.70572147728489       15.37466289165039
H           19.66399652324312       21.94379540085793       15.44574048913478
H           19.01712719401419       22.82242286928729       16.82950875496876
H           21.96182496237368       19.24023246890076       19.00280272458062
H           21.22401796499161       18.50747398543203       20.42989224118323
H           20.10818865253245       17.84916413125267       18.30395838651316
H           18.44388140559713       19.43213001625074       20.32810533017658
H           18.82679211385472       17.68671452829060       20.29684854219404
H           16.38199283436250       19.25385194150014       17.32042894829592
H           17.17998264499879       20.35027087457737       18.47572075655743
H           18.39368422966621       20.29888492495123       16.30903302583480
H           18.63915024158504       18.53127028320613       16.49733147621955
H           23.03564139689728       20.61860313586105       23.68763324081375
H           21.71140828784731       21.45556536070048       24.53946716285686
H           22.09778751327351       19.25508194521992       25.61810226775576
H           21.92006093418360       18.43970420479127       24.05726900761799
H           19.76002170878495       20.05261147689129       25.50388263231683
H           19.77969795334813       18.29392519130931       25.29291936844510
H           13.37868979268059       16.43451465122585       18.21411118713186
H           15.41274590235175       17.51851986249270       17.44574126093388
H           17.03023713941964       17.52499566546783       21.42216395493109
