151
 energy: -221.328174658532 gnorm: 0.009259381733 xtb: 6.7.1 (edcfbbe)
C           10.41177981332926       16.22064704316748       25.35250807579909
N           11.33483060540354       13.63740011514930       24.72359286295514
O            9.63793433929309       15.38983112146840       23.16138304436358
C           10.76938189147229       15.82237516662845       23.92218971978740
N           12.70863057107233       16.02193058312287       21.09988558852671
O           17.23660965189758       18.46637058905787       23.56986637143397
C            8.61196873704778       16.34392553607382       22.99536794360932
N           19.90381929843679       20.43245225364267       22.36942111281303
O           23.03895459000011       17.31769870423905       12.33381728842811
C           11.70414471145659       14.62974980730736       23.92314918790559
N           21.27638135832901       20.34642854866369       22.12013607417290
O           23.35090198490588       21.86434104078522       16.55581494449382
C           12.06297094221910       12.53902242432957       24.78242846643361
N           21.32619290243325       21.77252789597246       18.86294308637212
O           19.71632372734872       23.36295100065595       18.96592808500492
C           13.22150208148874       12.36058416297592       24.04073478165635
N           21.45945095768464       23.04344131118972       16.23069283110456
O           18.80424316460984       20.63916206413905       17.72749146340706
C           13.61449108109812       13.38933816008589       23.20737585999424
N           23.06668715235168       19.58190586398287       12.49928433503169
O           22.96676919966185       20.54508113057403       20.64949870900317
C           12.85288719708381       14.55817632856265       23.12668228701884
N           28.40088514529580       18.27808265736557       12.59478679056950
O           17.59822338966089       20.66573843051295       23.82463665918069
C           13.35034151709865       15.62577849470277       22.25131878302840
N           16.64944863550935       19.23066817312615       18.91582026407810
C           11.54181312952676       15.39924479125196       20.52423201776064
C           11.92410277479772       14.21228999359565       19.64217301490008
C           14.55883575815689       16.27847512190023       22.37328777275536
C           15.54103863313271       16.12977789824253       23.49040872806059
C           15.44353250830204       17.20371843403602       24.59828699076450
C           16.35414663939682       16.79575690519955       25.76001431368236
C           14.00443580971387       17.33044595617829       25.09242141794271
C           15.89205833009935       18.56830510084332       24.06191156508091
C           17.96697179766944       19.55623931065465       23.50159734055794
C           19.37574021060487       19.24562971905682       23.02505014690494
C           21.76432741270740       20.56695794722275       20.89100459490358
C           20.73937769982345       20.83422614868300       19.78802255336083
C           20.78974109192676       22.95365865895658       18.54373665319823
C           21.65036931837998       23.70828714279136       17.52015278451808
C           21.37230129052450       25.21551248990713       17.45408942759584
C           22.27707467364757       25.86538877386335       16.40830795133565
C           21.62488986377249       25.83452846044894       18.82896319864792
C           22.40527633933711       22.18946485918848       15.83204095780986
C           22.36069401482203       21.60857871712714       14.40922110833957
C           21.65771134840243       20.24805648054808       14.37987693276647
C           21.70044799211561       19.66423676220125       12.96530321125897
C           23.64616664485257       18.38761589562571       12.26787202182370
C           25.04517197559464       18.44576443750799       11.92592764673619
C           26.21652706399040       18.34873213586001       11.66878812158201
C           27.63973558530723       18.38873016016370       11.34171482482377
C           27.99810540796094       19.20903675084891       13.62995923227052
C           29.84059909473629       18.29835645248140       12.43357469180729
C           27.93095201055851       17.17586130743091       10.44141613450608
C           27.88686535108309       19.69419405632491       10.55435971168032
C           23.75568496242256       20.84983961447631       12.47255890370783
C           23.78980418270915       21.45970294670513       13.87319684630100
C           20.16652271816546       23.23261984489805       15.60207906996701
C           20.42681537390148       19.49959309927850       19.08723846195418
C           19.02914359598726       19.44857576833066       18.46375010384710
C           17.95438257500825       19.21675782606997       19.53830799006114
C           16.43232385120210       20.50021758098753       18.25201642776220
C           17.50342864345100       20.66451745901026       17.17489691707310
C           22.14313793007071       19.99880331344144       23.23630181562872
C           21.67051482512893       18.67727567942285       23.83700853611697
C           20.20671774733538       18.81371419429220       24.25048229595450
C           14.69050465129386       17.09997501331857       21.21592128218797
C           13.52571917006016       16.90280991240932       20.44052332956374
C           13.37735107665330       17.54449546195952       19.21635918031147
C           14.40473304309046       18.33894734888469       18.76339094310795
C           15.59096089607013       18.53081492295604       19.50351113345962
C           15.71422171686976       17.92317957133680       20.74319846043497
F           21.69322309383784       22.49337685651814       13.55362393749268
H            9.79040143793481       17.11029770679734       25.35947378375375
H            9.88726620106660       15.39769796395787       25.82885479239215
H           11.32039220401285       16.42610845726695       25.90829289762154
H           11.24191793594878       16.67326962516966       23.40273465819361
H            8.10614516134427       16.56228216807221       23.93971095106740
H            9.00239706849913       17.27321153283925       22.56168347224975
H            7.89867680101464       15.88850185801238       22.30690207047093
H           11.69484350578105       11.77537571940583       25.45374854397598
H           13.79236206926542       11.44924111407837       24.11163225053723
H           14.50366472330935       13.30106873635283       22.59969248842960
H           10.87913082886639       15.06850262660798       21.32747888165272
H           11.01713310613204       16.15319355809586       19.93161725793636
H           12.40774999506617       13.44252395420966       20.23936541140756
H           11.03647153304882       13.78967682205875       19.18261031122714
H           12.61061630297866       14.52844723750304       18.86007782234195
H           15.38751087991001       15.15890881443887       23.96559308258703
H           16.55187006514911       16.15516658739970       23.08061239956091
H           16.03080592426278       15.84688028913480       26.17757307913210
H           17.38040331559233       16.69324813037801       25.41816761776994
H           16.32421166557236       17.54483078881563       26.54830896207875
H           13.94836612650301       17.99882764688860       25.94711771476388
H           13.36324041848922       17.71962144807498       24.30570605929329
H           13.63412213037452       16.35170023079621       25.38484603883720
H           15.86386513094179       19.33300578994487       24.84490617560679
H           15.25143671105495       18.89170297385953       23.23673917787707
H           19.34486753361159       18.43004218880730       22.29606490043342
H           19.69072609147240       21.25126606577661       22.94379831135843
H           19.83807332845551       21.29454247929717       20.19278093176086
H           22.24973777169135       21.52768114308343       18.52383542137985
H           22.70271957410210       23.56032138124925       17.78764987161371
H           20.32461448981067       25.37789727636412       17.19211365640091
H           22.06689095362873       26.92906643368059       16.34113953241378
H           23.32098941144577       25.73747246763981       16.68760060478857
H           22.13132241822279       25.42125162578840       15.42695695373248
H           21.53708903066951       26.91486081048958       18.77169608056756
H           20.90169208849321       25.46531366391464       19.55040980322345
H           22.62406022118223       25.58544531421679       19.18041660985382
H           22.18722627644941       19.59343303222567       15.07366018672407
H           20.62288404988744       20.33601480414076       14.70937056664553
H           21.13182717334374       20.30634519811790       12.28479353949690
H           21.27942899249281       18.65762206602632       12.95237722056750
H           26.92042349513080       19.16081923650954       13.77015386760966
H           28.47867588540839       18.91091773753051       14.56022256675084
H           28.28360948776671       20.25011044557491       13.41542845668921
H           30.14855472854787       17.55897971256143       11.70048805301127
H           30.22980948934438       19.28490513554537       12.14072894910193
H           30.28640482023741       18.03182251393057       13.39152080827178
H           27.17014617171911       17.10791602614171        9.66678747118415
H           28.90100037267339       17.27166064367059        9.96100725156231
H           27.90800808017905       16.26614412882602       11.03522584526495
H           27.66858724827332       20.56009304154854       11.17418228078050
H           28.91986823302958       19.74367398850384       10.22170287434062
H           27.23829469773091       19.72044696963888        9.68256510884109
H           24.76819600240819       20.70634865537708       12.09705332926327
H           23.21427634537601       21.52333582535633       11.80093822913128
H           24.27030976489984       22.43650823258953       13.84437032471368
H           24.34513468466002       20.82366769938609       14.56079267742231
H           19.86554770568619       22.33549737014521       15.06116162256764
H           19.43586028000716       23.41164641774894       16.39209825055793
H           20.18253049543398       24.07841985953482       14.91067120604480
H           21.18139626961481       19.35050316988038       18.31363553056567
H           20.50944703128656       18.68069685831866       19.80097003520232
H           18.98148081876177       18.59602517422996       17.76449655411595
H           18.04102086111307       19.98543457505249       20.32448112834228
H           18.13496281779944       18.23320156701612       19.97151934262420
H           15.44442757343507       20.53448247956451       17.79840714480469
H           16.52209733565201       21.33336002914888       18.97114957082794
H           17.40895354345092       21.62962383419730       16.67789385901238
H           17.40180894811501       19.85338118369127       16.43838587827112
H           23.15706687847851       19.92689676254933       22.84208136965512
H           22.09981253279580       20.79690559671041       23.98480199971006
H           22.28469782907786       18.42409599574543       24.69874708130092
H           21.77287988584450       17.88678224373569       23.09204014890411
H           20.11146370712071       19.57369173183433       25.03000348893505
H           19.82212531447112       17.87024560194530       24.63423551743343
H           12.49434830340815       17.40814093104460       18.61070510846572
H           14.31030412672511       18.79982077033756       17.79267057474686
H           16.59750111681451       18.05416823396177       21.34389508378292
