151
 energy: -221.328036582078 gnorm: 0.007283702855 xtb: 6.7.1 (edcfbbe)
C           11.06288724710867       16.58482673499940       25.51427872061224
N           11.29747287155255       13.95890622008051       24.55138637273835
O           10.03224259288320       16.34014916391641       23.29618535478514
C           11.25853864077879       16.30643688452378       24.02332620759979
N           12.82359846413745       16.25358988563899       20.97144461728731
O           17.72071537576907       18.09908927060275       23.31507135612213
C            9.42599448519729       17.61273285442495       23.23409838638102
N           20.10044737877774       20.43787504793936       22.29722783803118
O           22.93746171330917       17.45393888790361       13.28520612374585
C           11.83269696004591       14.91935462675998       23.80963749449111
N           21.46781623069496       20.61277656642021       22.07616997839035
O           22.89354082496559       22.26091384379433       16.10114278486775
C           11.72466317142045       12.71719895693508       24.41444498003916
N           21.25218357175304       21.85046568926058       18.75489245733087
O           19.28478802857279       22.96419994576229       18.75495701186260
C           12.72769003173388       12.35467017205697       23.52779330460503
N           20.83643390717657       23.16330787267194       16.01387403037191
O           19.35593970123920       20.11344907165742       17.33152408135102
C           13.29839524880459       13.34966705618624       22.75772733583300
N           22.55068209590751       19.55528700631818       12.52109658445145
O           23.12006012298508       21.04260515731985       20.60746559792941
C           12.85328750725168       14.66750061916686       22.88336877693095
N           27.93954452853428       17.59188122265971       13.09004376944368
O           17.84685455221676       20.26904718120239       23.85428152814491
C           13.48946211472554       15.68075561845583       22.03142990562919
N           17.08843943504335       18.85441111999950       18.54805995148464
C           11.51326355014288       15.88276569562122       20.49765154341003
C           11.58143077049621       14.73045992221409       19.49696025776488
C           14.80387468781656       16.09259601152819       22.04807216407302
C           15.87509071584799       15.69155531583938       23.01122280377593
C           16.02622913056365       16.60348361992425       24.24901097561010
C           17.12946168944753       16.03921524434582       25.14797231793362
C           14.71339055700390       16.66780632705294       25.02739506333046
C           16.37956654347602       18.03445439468149       23.82726441571553
C           18.33998660557336       19.25374846981910       23.40886096839150
C           19.78812407212784       19.18032845500359       22.96013408536385
C           21.93201474524163       20.84729592735187       20.84080406090143
C           20.88085828592072       20.85305964100446       19.72795011174696
C           20.43741462995346       22.83372476368922       18.36316683456836
C           21.07986867829725       23.76489731533459       17.32740145737650
C           20.60048696489944       25.21722992368297       17.43483133326859
C           21.29632048522280       26.07953687085233       16.38466853473977
C           20.91646423525673       25.73962555886919       18.83562363797321
C           21.83570955418381       22.44749675080967       15.49119538511683
C           21.69879318085746       21.78927132414306       14.11012573748109
C           21.14047059770499       20.37452444134037       14.31376533188968
C           21.19234798120335       19.56801727613279       13.01504360840537
C           23.35529814591634       18.51532704053350       12.81709431236108
C           24.75635712959928       18.69040637484780       12.53775918193201
C           25.95924395646154       18.70533715705416       12.50062749377298
C           27.41374798242882       18.76020960815622       12.37149642927656
C           27.63199983176145       17.59157232118905       14.50717408188685
C           29.33997400830519       17.29313372362596       12.87027634680327
C           27.73073127854826       18.65941471112943       10.87126764047057
C           27.90842224432740       20.11967547184585       12.90872812773304
C           23.03717762465186       20.86907934307436       12.17483231766309
C           23.06622538014780       21.76153581798064       13.41800500357079
C           19.48367988489015       23.26482836011610       15.50914343378752
C           20.81796581620713       19.44272226259342       19.11515401557579
C           19.52125923309670       19.14708956747765       18.35496608200557
C           18.30840780920638       19.08163349284420       19.29940536751748
C           16.94139686341564       19.90518506944919       17.55932212770048
C           18.15289579139627       19.88027465396856       16.62953147831482
C           22.34406454179777       20.48080413529437       23.22906709847017
C           22.12987333909129       19.10218635317468       23.85213438963883
C           20.65505202555133       18.93869069470010       24.21427706836365
C           14.97296788358169       16.94635023597962       20.91585414572236
C           13.72421620668798       16.99894650324349       20.25875804985316
C           13.59501147626990       17.70534869351473       19.07197392040090
C           14.70631769112290       18.32581786925766       18.54906217860100
C           15.97073854669734       18.29533389346427       19.17878594516641
C           16.07934912275811       17.60834339114886       20.38294493591675
F           20.83584832080069       22.51203839983019       13.27736830583633
H           11.97008744558254       16.33288159890516       26.05388458240565
H           10.83123780437907       17.63254803736437       25.68709059279485
H           10.25054357896892       15.96565136551287       25.88265602016815
H           11.94154406633707       17.05273310241032       23.58360849508234
H           10.12610313009207       18.35665316460479       22.83598686749641
H            8.57763760473826       17.50785002390277       22.56020641980417
H            9.07016914331660       17.93913476711157       24.21515666411594
H           11.23879917644678       11.98655948166268       25.04676738838326
H           13.04627972620058       11.32806725311501       23.43606445436631
H           14.07866718371131       13.12341333455175       22.04462373194970
H           10.89772260382515       15.59934763302780       21.35302426292014
H           11.06418924406216       16.76044341079862       20.02606401836668
H           12.22983644716182       14.99055473037083       18.66318707619109
H           11.97383488057264       13.83663300326022       19.97608694693625
H           10.58681543916638       14.51410807629583       19.11821899593334
H           15.67453374105717       14.68090165247346       23.37155767995909
H           16.82757106523245       15.68420423810224       22.47925782914565
H           16.83798038100370       15.06234750763723       25.52452237866351
H           18.05835688034488       15.93547824480692       24.59261216766733
H           17.30431566760896       16.69966355674709       25.99468000746406
H           14.31956220281597       15.66647540342838       25.17944061901464
H           14.86447529584141       17.13298212818673       25.99854729042305
H           13.97797110985652       17.24764476351140       24.48127569058980
H           16.31000499005914       18.71921713853319       24.67811534810532
H           15.69947632413953       18.38373386894807       23.04548158492046
H           19.92240657072897       18.36188103103819       22.24694225120058
H           19.72504671462352       21.20761820389631       22.85128986171220
H           19.91110837912940       21.14903692138230       20.13297306616170
H           22.18765879312196       21.78522440558176       18.37548276169166
H           22.16525440960841       23.74663306785774       17.47140418185846
H           19.51775205127010       25.25398295478936       17.29239504764486
H           20.93206507061296       27.10132908317058       16.44254784494168
H           22.37069005020482       26.08454552854529       16.55965755477755
H           21.11933538532669       25.70538239017662       15.38011546723350
H           20.61923528408973       26.78139555887876       18.91917471003677
H           20.37895136298216       25.16658284744412       19.58696576697445
H           21.98261951267907       25.66582665728397       19.03963598931775
H           21.75442278866021       19.88584222482968       15.07275586077197
H           20.11977511800276       20.42320244116818       14.69034236550706
H           20.54560999365076       20.02077776067604       12.25947477890377
H           20.88247020071562       18.53792849444670       13.19933844150718
H           28.26218384010683       18.28473248734580       15.08675388620745
H           26.58496525308908       17.85467960657765       14.65935958859919
H           27.79053726820690       16.58396062421309       14.89199705959449
H           29.57589686023750       16.39114570852719       13.43533191486074
H           29.52101492916771       17.08868401932703       11.81854684224592
H           30.01745052779579       18.09226594705481       13.20806101383857
H           27.11805649315771       19.37176379579143       10.32436782769342
H           28.77643421318470       18.88869486003168       10.68760879855802
H           27.50586484745170       17.65887792526690       10.51329304949093
H           27.56109405955160       20.91953455576865       12.25891874225085
H           27.53381398675570       20.30388838117991       13.91332820582344
H           28.99542461626163       20.13577383850176       12.92712532822866
H           24.03719833898250       20.78777764374986       11.74835024223484
H           22.35835676085261       21.29606996221008       11.43133165502554
H           23.33750099967924       22.77999556102071       13.14005819799441
H           23.79674146019550       21.39003657151958       14.13680875543878
H           19.24742767265148       22.43742548752245       14.84975092367320
H           18.80406259484314       23.23522707765661       16.36020712189564
H           19.34089570020130       24.19727127782980       14.96206682191212
H           21.66218961881801       19.33635305653339       18.43224348522170
H           20.92286720170778       18.70244567123617       19.90817199547388
H           19.61865886482066       18.15586540969047       17.87510271603266
H           18.23250994038099       20.01686781758586       19.87461664260579
H           18.48980375553612       18.25879556020453       19.98505197543988
H           16.05338831475391       19.75725183457276       16.95297679080419
H           16.89088542023550       20.89397558480874       18.04404698069695
H           18.06887994263025       20.67833943098623       15.89163326540017
H           18.20579881747586       18.90435996858021       16.12199884352639
H           23.36676834509881       20.61691427670120       22.87794278291522
H           22.09809191213590       21.26695907861831       23.95123705958302
H           22.74771510840993       19.00434480367976       24.74308907835253
H           22.42577716021781       18.33273686358704       23.13739422527192
H           20.37921423610235       19.67258595116772       24.97620860873483
H           20.45775698158427       17.94167094004540       24.60614486241587
H           12.65341791714267       17.76146444521331       18.54641593436016
H           14.57920608968410       18.83827707152626       17.61050270756900
H           17.00892753442464       17.54928977633702       20.92321234925888
