151
 energy: -221.321234450569 gnorm: 0.009241252683 xtb: 6.7.1 (edcfbbe)
C            9.77491167392417       17.40290429764001       22.97538088980870
N           10.41607834961281       15.00421999798365       24.21132155804633
O           10.46718769250967       15.86709723643856       21.20009343171104
C           10.88708594769835       16.53386458305393       22.39119539577009
N           13.69318397962647       15.06637840900723       21.19597301541403
O           16.94859552771474       19.36879973537469       23.65583633262892
C           10.60495850206676       16.64913693492469       20.03328330800983
N           19.94557673901005       21.27603036408362       23.07158332059521
O           22.76938037489698       17.76814980471624       12.27094788980711
C           11.33692046638385       15.48172882996779       23.38858579517434
N           21.31058815967570       20.96910811155476       23.11157405636712
O           23.42354729636395       22.00228028966835       17.29440833253109
C           10.75901733032001       14.10280208066745       25.11613619810193
N           21.72748458490522       21.38549526772026       19.87251469174035
O           19.78342554981115       22.50658469731681       20.08174369284167
C           12.05598775519111       13.64180543483878       25.27460085189659
N           21.29346016380127       22.72948873693152       17.23551606501397
O           20.16884128161762       19.36750868648905       18.26312900512569
C           13.02429117707882       14.13253504864597       24.41690950757715
N           22.83100693505111       19.91039142850228       13.01337161661066
O           23.20636023982859       20.12446074271253       22.23828270128513
C           12.67405172176916       15.05932595116624       23.43852782441209
N           27.17782352868287       17.77854601047356        9.81828306463724
O           17.33754063187094       21.06617909010118       22.25222046496017
C           13.69962156825234       15.52072358968797       22.49290037830879
N           18.20084193176097       17.55066653510899       19.18541744912933
C           12.87740377032332       13.99717475164999       20.67667049831419
C           13.50503991813542       12.63277471719431       20.95903588453889
C           14.78033948306691       16.34899236397419       22.70797723223643
C           15.16866058688844       16.97848761922550       24.01016212138589
C           14.76992304883454       18.45637901955204       24.22411740046109
C           15.06671402336226       18.83599083542535       25.67765925774153
C           13.28530161509872       18.67026223309266       23.93367989831813
C           15.55838880956940       19.38459744331978       23.29584501915016
C           17.72492156649926       20.25981310758042       23.07327275340311
C           19.18021233402970       20.10197171077712       23.47264396135412
C           22.02686033078231       20.44157298254206       22.10302792825634
C           21.32105576944394       20.30627288746828       20.74409526018352
C           20.90015552296080       22.39677798537547       19.58639092694635
C           21.46399623695788       23.36530015989736       18.54283447317789
C           20.82062831695641       24.75838190698321       18.60829412570883
C           21.38889481126569       25.66164069496491       17.51543750206137
C           21.07720949206238       25.37699214007382       19.98247570231276
C           22.35982849499547       22.13651674870953       16.68589860120505
C           22.26445783898532       21.63008923880219       15.24048960037628
C           21.75131458721414       20.19005536202273       15.18540350342797
C           21.58099766551030       19.77375754245020       13.72669705456093
C           23.31333398149296       18.87564254833782       12.30321182905035
C           24.51183328167957       19.11245204769039       11.54134618575250
C           25.44225116605329       19.05669008466606       10.77777827380500
C           26.60115727762582       19.12839708389491        9.89070881145141
C           27.56295178000704       17.23475191048952       11.10412818379945
C           28.25104410805682       17.60955916392150        8.85924012253109
C           26.06963204757822       19.55144905645775        8.51021703904881
C           27.56185362662177       20.20501469396761       10.43372812406549
C           23.44165423913717       21.22045547205254       13.07216882839562
C           23.61586077417566       21.68444291023882       14.52180561522975
C           19.93175573098841       22.68514672478312       16.74143413685854
C           21.61231344512955       18.93105139802833       20.13420224369288
C           20.46057330310239       18.41103457117140       19.26951842539418
C           19.19771146761887       18.08102185702406       20.08811326252019
C           17.87940651016872       18.55341052320225       18.18448002336687
C           19.14420030937398       18.89354762703874       17.40822625747694
C           21.74385086126386       20.83110169077040       24.49430919892470
C           20.95377982566967       19.69454240582277       25.15198594033012
C           19.44882835071866       19.90851667219618       24.96832783104055
C           15.49211527655807       16.40330345713681       21.47086524130329
C           14.78188323766336       15.58608944659473       20.55694314529843
C           15.21532258449835       15.41253382938330       19.24756240516245
C           16.34519091547334       16.08356156691304       18.85168690675701
C           17.06526830210081       16.90974942695221       19.73530663127911
C           16.65885821395632       17.04908039363401       21.04896575417552
F           21.39521067310613       22.46988076699067       14.52705965130390
H           10.11956989912004       17.87087604604502       23.89217606533148
H            9.48856113815821       18.17906970776121       22.26989135210836
H            8.91350465922512       16.77936047011727       23.19423900555901
H           11.75937530754727       17.15464738422648       22.13952373495091
H           11.65732606050432       16.92021915837245       19.87043012984528
H           10.25292053294362       16.03102386186091       19.21142639906278
H           10.00486246075135       17.56243643586349       20.08197201901691
H            9.95152745383726       13.74949517833368       25.74198579924335
H           12.29747396664102       12.91774011765868       26.03617524902030
H           14.04937971294715       13.79968868825308       24.48547358868691
H           11.88345535421705       14.05825177539207       21.12425968431189
H           12.77591326124225       14.14582201873447       19.60004235682712
H           13.55411763553417       12.45252801977836       22.03096650003387
H           12.90624453704010       11.85016066006858       20.50239599725254
H           14.51378401839846       12.58849152602915       20.55274600127055
H           14.70626814565413       16.40263403556850       24.81519085664633
H           16.25250724534832       16.90514053305509       24.11947609433889
H           14.45067779463521       18.24992225675311       26.35321738537343
H           16.11188541822975       18.65673070804231       25.91054464178942
H           14.85399140815793       19.88916753732433       25.84182695753717
H           12.96500459564970       19.64797528990711       24.28327226512532
H           13.09924690584830       18.61464242772694       22.86477126647521
H           12.69238421429180       17.90921877562555       24.43199864044900
H           15.19358392840049       20.41340494208186       23.37231747286505
H           15.46608927359190       19.07169076856542       22.25181434499912
H           19.52785350485631       19.19361053240952       22.94028472937121
H           19.64416872888809       21.67542852301626       22.18273189953539
H           20.24208973238346       20.42759870858435       20.85886472666651
H           22.63815846957815       21.33483853423645       19.42612012674717
H           22.54322340589064       23.46072983802447       18.70355840404929
H           19.74056957671817       24.65374826067461       18.48129179365895
H           22.43917594465841       25.86702144936724       17.71454958475484
H           21.31285803114289       25.20251987152162       16.53288309156517
H           20.84932593666817       26.60501848514157       17.50002737618485
H           20.59377872725099       24.79341084228731       20.76184366786991
H           22.14498071003273       25.41879896627356       20.18834323450048
H           20.67750334995059       26.38741994895532       20.01090338068379
H           22.48620348335807       19.55526240037886       15.67990477572995
H           20.81009098119682       20.08096111587274       15.71605954077284
H           20.82378681163691       20.40824872041254       13.25151711430075
H           21.27080368172920       18.72962477858378       13.65253679801838
H           26.75993465080099       17.38032295157215       11.82582706475967
H           27.72989980460494       16.16431838696612       10.98574722199473
H           28.48646843774324       17.68152043068057       11.50500245694758
H           28.49765403239840       16.54885299438236        8.82464303897009
H           27.92434877291639       17.91027420376682        7.86778582701068
H           29.16390551863976       18.16310425514580        9.12620323610372
H           25.40766169262471       20.40729955008218        8.61888978875619
H           26.88777704723253       19.83172568890019        7.85373304109455
H           25.51152583630063       18.73076426419976        8.06761529499883
H           27.87395962486591       19.96237445963691       11.44763959997786
H           28.44161812634227       20.27398189606669        9.79896460655677
H           27.06769427199044       21.17295638369368       10.44717801110586
H           24.40989679904332       21.18182981580057       12.57230158487894
H           22.79762494850651       21.93469456248314       12.54676440457476
H           24.00241039106279       22.70259565538436       14.53461098693498
H           24.31422226836305       21.04558489402950       15.05892024325171
H           19.26726353818450       22.52304898904915       17.58838434922927
H           19.66485281531642       23.61855434725969       16.24505272259297
H           19.79580212394075       21.87080997394084       16.04035971410804
H           22.51902144173426       19.00034469816483       19.53132805303342
H           21.79920728151313       18.21103449500433       20.93221878201289
H           20.78274611572226       17.47717791294544       18.77871708048104
H           18.83356147776288       18.99793489608631       20.58723811888744
H           19.43940650656425       17.32733792760822       20.83894349562338
H           17.12244078507559       18.16890338029115       17.50343050627600
H           17.49345396210391       19.47276615756200       18.66440414650306
H           18.93821494568817       19.69620967335545       16.70058534150177
H           19.49797984507200       17.99875460249886       16.87538463047961
H           22.81187835073406       20.61945594361708       24.48595125832253
H           21.55011048276691       21.77717036828713       25.00143915019188
H           21.20096475352638       19.64961681081737       26.21020103857562
H           21.24561096928866       18.75004939291206       24.68924292217920
H           19.13531725330148       20.80861496431743       25.49427745023359
H           18.89003774938449       19.05692727507775       25.34940755362189
H           14.69002998840343       14.77182377109600       18.55709760380635
H           16.71519760638124       15.96868997755717       17.84442708406744
H           17.22828715802452       17.64568807568480       21.74550492715977
