151
 energy: -221.332475364219 gnorm: 0.009255736033 xtb: 6.7.1 (edcfbbe)
C           11.65501059332079       15.46422299652387       24.87719625496069
N           12.33003960926144       13.15744767356968       23.44561225175158
O           10.65469594401141       15.52228460787460       22.63766233485657
C           11.88092230910402       15.52268442722069       23.36597483620102
N           13.23098339334379       16.39136073320008       20.48653982553112
O           18.00252482236346       18.20311805617362       23.26633900992134
C            9.96437852507907       16.75256881273914       22.65595483657559
N           20.18750567716737       20.84471055553105       22.66101445826745
O           21.93265933742070       17.04398531046433       13.75096927650891
C           12.66344779135665       14.31208023199613       22.88969020446230
N           21.53067449597216       21.02432737248706       22.31687407262986
O           22.63859810356510       22.15809116824428       16.50030445930765
C           12.96882504025142       12.05591673417794       23.09119064090045
N           21.13352893835705       22.47312021783422       19.06968987378533
O           19.28900239599153       23.77709879157555       18.93057349268974
C           13.99413647226634       12.04457230188441       22.15957629545786
N           20.78935789371736       23.39686314892442       16.18421109324369
O           18.77596964820888       20.81670426067468       17.70038575470685
C           14.34712276326360       13.24537072967433       21.56958833863338
N           21.97460933208535       19.21338644218309       13.10146839844005
O           23.03238748452525       21.45082523445026       20.69185183126743
C           13.67615434121168       14.41471740280774       21.92355553958914
N           27.05461012793133       16.42376419234235       13.41368179986747
O           17.93351788415715       20.22297929378574       24.24092019737756
C           14.07526805551145       15.68830723041930       21.31226574714672
N           16.42051208881574       20.77409813622428       19.33755994208937
C           12.03926988771150       15.86885526350501       19.86595652845619
C           12.37591160862680       15.06997042764284       18.60609801150860
C           15.27049667888584       16.35894896182901       21.46254366981292
C           16.46444460932013       15.88307497178906       22.22937949397034
C           16.55183819003981       16.32679330554667       23.70554321565397
C           17.75947289813172       15.64188947206374       24.35222955924701
C           15.28694413124989       15.95133499673512       24.47343060895127
C           16.71693154889555       17.84819156790616       23.78843681992655
C           18.50881355111468       19.37064472997121       23.60189914590261
C           19.94479921642598       19.48680389167239       23.12716032496631
C           21.86812415516788       21.34354456475110       21.05842707581106
C           20.68870080453845       21.58719363277910       20.11389806230510
C           20.41319230648340       23.47138942105413       18.55322996302470
C           21.13079979905925       24.16218964312088       17.38591269206023
C           20.82386260135670       25.65876046717998       17.25343680140932
C           21.60994325402260       26.24424843760164       16.08208781011281
C           21.21170391672025       26.36743328740033       18.55010876179392
C           21.64646749615264       22.43865785957724       15.82158270079398
C           21.44269593996423       21.66343363324809       14.50999276536480
C           20.66332227339574       20.37317745205480       14.78707648939386
C           20.62615385455039       19.47505967848187       13.54907455803520
C           22.55582386177297       18.02453699767602       13.34761708413343
C           23.97682170838332       17.96814774141458       13.12583825934845
C           25.17478131392133       17.84305287200973       13.12403624135175
C           26.62938553586454       17.77902573279048       13.04011191730952
C           26.52658940730450       15.96370457925978       14.68412357163591
C           28.48459448322073       16.19787328624539       13.34821051502718
C           26.99841895890787       18.06229879639237       11.57317738006763
C           27.19393444247449       18.90258132657283       13.93726012224777
C           22.68390370044169       20.40689013645266       12.70840930318309
C           22.81472051401922       21.35841827672403       13.89728921693060
C           19.45159524209691       23.59816607170172       15.66786207121777
C           20.21665680523488       20.23554828289263       19.54663061384572
C           18.79105930306287       20.21199132178820       18.98955913429019
C           17.75094055440245       20.89369318719976       19.89590595799467
C           16.42793433006634       21.40287905438314       18.02952585244759
C           17.48018596801426       20.74309001267119       17.13149499267989
C           22.51777542600654       20.72762435205279       23.34367716324124
C           22.32549323387179       19.29761257926667       23.84893315501916
C           20.87718365486112       19.09811200114595       24.29028613232223
C           15.16482481919674       17.54986538403005       20.67838105461001
C           13.88484583665655       17.52315475819950       20.07917521269694
C           13.46790886880632       18.56121145439243       19.25532607967070
C           14.33207213086630       19.60507861343585       19.03438328289860
C           15.63653073694893       19.64409749607799       19.57775462023136
C           16.04264065620648       18.60467084110876       20.40602570112276
F           20.74045876412494       22.43703100419044       13.57922955386211
H           12.60818218542865       15.35353446482558       25.38471935422288
H           11.17263867321617       16.37342279282278       25.22666531618261
H           11.02911285362781       14.60762528864329       25.10667514464722
H           12.43734169853086       16.43791762441180       23.10416337842851
H           10.60946574096612       17.56541758901179       22.30064764261584
H            9.12137389815604       16.62985369274226       21.98036827396294
H            9.59704274260811       16.99606021119329       23.65593812208548
H           12.64156130832732       11.15158566842669       23.58501916760819
H           14.49692368601059       11.12626496692098       21.90248816150314
H           15.13298349241665       13.28348831748110       20.82989231292652
H           11.51344976859530       15.23462721821840       20.58229673925931
H           11.39258010942778       16.70954003442365       19.60933163918640
H           11.46213581461497       14.70699546210100       18.14466296588002
H           12.90938667651237       15.69644791280200       17.89525978504646
H           13.00288322982874       14.21728747256261       18.85608343270139
H           16.47466245980062       14.79134177452110       22.21728372069528
H           17.36310302110429       16.23589426509517       21.71941944999334
H           17.59936509445812       14.56775597846879       24.38755255552616
H           18.66315661497215       15.83993097859458       23.78219481124602
H           17.90310035192491       16.00369204980704       25.36753682955483
H           15.07670458466176       14.89163255517944       24.35759210970318
H           15.40852474937367       16.16770702110353       25.53189387255174
H           14.43916143025946       16.51734267908031       24.10066349402967
H           16.65768367218485       18.19762262685913       24.82389814518254
H           15.94463036096401       18.35772185626050       23.20612577262327
H           20.09711996806795       18.79659776091086       22.29210419858778
H           19.91589895281862       21.50316733760441       23.39156568326949
H           19.88837867916929       22.07687877121887       20.66819097946273
H           22.03579493610896       22.24516694106769       18.66606180593264
H           22.20994887050379       24.04303472971342       17.52965327570850
H           19.75312636176185       25.79495242303519       17.09530182360919
H           21.38684872901963       27.30016961133405       15.97003768363447
H           22.67680132529119       26.13614792418496       16.26355684781848
H           21.37309262072914       25.73756239262180       15.15051227482084
H           20.99794435155814       27.42805546542780       18.46726792869850
H           20.64720730048784       25.96812070064776       19.38711069704932
H           22.27246514367277       26.23949220668206       18.75282088853476
H           21.16341440530286       19.85880806393186       15.60752814694311
H           19.64919104952456       20.60436321662797       15.10734655865524
H           20.07547423821191       19.96920244596316       12.74387707592859
H           20.15271449860638       18.52126081674500       13.78704500262724
H           26.99490535892441       16.45247667027977       15.55240301823001
H           25.45215975643154       16.13501566516481       14.72117817233320
H           26.70732686763957       14.89251069879109       14.75991787637162
H           29.05220312710461       16.78864258460270       14.08439845860219
H           28.66481907982606       15.14128925135121       13.55361899634721
H           28.85207369018173       16.41518454072101       12.34773818837989
H           26.46290368526482       18.94245732030029       11.22565005912566
H           28.06351010032192       18.24919528827478       11.47314478524621
H           26.71902745935393       17.21336564714555       10.95569965764868
H           26.73980505147488       19.85203551062606       13.66630475527555
H           26.97734299536360       18.70580896988836       14.98630399875144
H           28.27009061867392       18.97821717603392       13.80584002964981
H           23.67042749842740       20.13939210582066       12.33039070516913
H           22.11110080786644       20.89363304898665       11.91333113051222
H           23.27233301247813       22.29488602497273       13.57761411026436
H           23.43759273645749       20.91674990547056       14.67563662336419
H           19.41452164391447       24.46760049550470       15.01200076430417
H           19.11213861709270       22.72979193420542       15.11651492372438
H           18.78449945066716       23.74941697091074       16.51649469972385
H           20.90061032018064       19.94903228904467       18.74480485112380
H           20.27659462836534       19.48320133232713       20.32818366574338
H           18.49822150804497       19.15406481906989       18.86207961356902
H           17.97184777623706       21.96512764955715       19.92759089537878
H           17.79149513007038       20.49747255015703       20.90844527178173
H           15.45650613291673       21.34554061083646       17.54630369302253
H           16.69466208123636       22.45535832814253       18.17130084730486
H           17.53633557151000       21.25363335123707       16.16969806500572
H           17.21379772287526       19.68576849434810       16.96882260245551
H           23.50115778779072       20.86825250505942       22.89660316657290
H           22.38521720374970       21.43915541101604       24.16494770611160
H           22.99854153939047       19.11650932472090       24.68378290571709
H           22.56800965941812       18.59650735594348       23.05067386037127
H           20.65254270618747       19.73803955016664       25.14657778869519
H           20.69731421904428       18.06114277269459       24.57472611335350
H           12.48786484259463       18.56649069603542       18.80135757482999
H           13.98443595333821       20.43073191049206       18.43571361448279
H           17.02621396399243       18.58619704186555       20.84758972874716
