151
 energy: -221.330620217652 gnorm: 0.007625084096 xtb: 6.7.1 (edcfbbe)
C           10.68938328996663       16.44333047784325       24.88960864286316
N           11.31011551906832       13.76160492608935       24.30599257722674
O           10.00048997189954       15.85535566509215       22.60526260532185
C           11.11368457142439       16.02130133897122       23.48343512075495
N           13.00349220176584       15.89676412619627       20.73119256846758
O           17.40151123240006       18.34334719252372       23.47078477805652
C            9.43350605791189       17.06458838711182       22.14689202817100
N           19.81017362753089       20.72084311899984       22.54440362540847
O           22.53886577451822       17.12078537449528       13.55288230456288
C           11.83796404599538       14.68847150510519       23.51840975671229
N           21.19526746383573       20.87975458318409       22.43188169486951
O           23.32905056056580       22.33969235498629       16.74706062547864
C           11.88902761407208       12.57837236814919       24.39062148410062
N           21.36879222752495       22.15359905959090       19.09977179668886
O           19.64307912300074       23.61090480065557       19.15416873440348
C           13.04455724463652       12.24642949537928       23.69889213296010
N           21.36456657108942       23.39837005144715       16.43770013275790
O           19.20154525752170       20.69759432560333       17.76445631795788
C           13.60075349163917       13.20545803177770       22.87350501858237
N           22.65784043676410       19.36335250558442       13.23613855662526
O           22.97338206307222       21.31106464215807       21.12462719303733
C           12.99373534639003       14.45655838407221       22.76028557910528
N           27.94351917645004       18.06839063726808       12.51675239618537
O           17.41410648414167       20.54123990524332       23.91022441173576
C           13.60966350556654       15.46338522753791       21.88831191281556
N           17.01684522409657       19.19706950190931       18.80431504549237
C           11.85591141528758       15.28156890656282       20.11174313147925
C           12.25663422942753       14.07443704626946       19.26460548154817
C           14.83356736000832       16.07527903295753       22.04840367375397
C           15.83720794605089       15.82514611544095       23.12825127553486
C           15.77763684592770       16.76788360476108       24.34987650150245
C           16.83753794872491       16.32387255926694       25.36199452850689
C           14.39540566769756       16.72046858266500       24.99790707373378
C           16.04549704441611       18.21517747905603       23.92476999539226
C           17.96703589396256       19.52676630910999       23.54077054634883
C           19.44308786064535       19.46625306285549       23.18761371898182
C           21.76504200959398       21.13823384246932       21.24607361371410
C           20.82338949818989       21.20523777911504       20.04087344967540
C           20.75022706686595       23.28440633445058       18.74941985403207
C           21.54786285793732       24.09277844674978       17.71384317831791
C           21.15394700067271       25.57361223996660       17.67152887417897
C           21.94300002482552       26.31366806504690       16.59330623453210
C           21.42135578114696       26.20474474784231       19.03844659365480
C           22.32361558971512       22.54776728494311       16.06138475138628
C           22.17782013410013       21.75784325889847       14.75392110006680
C           21.44371044819184       20.44324959723265       15.05152883448668
C           21.33966172353539       19.59969619304238       13.78171534262146
C           23.16572603410805       18.11768931518727       13.18967205489490
C           24.49584071558683       18.01500178115007       12.64722339846990
C           25.59787753180266       17.80759165982730       12.20872215504118
C           26.90297738767502       17.63647525394936       11.57552264120254
C           27.73040367211237       19.37693857800267       13.09761925537768
C           29.29922869775087       17.95105599608960       12.02086511476701
C           27.05637589100629       16.13420708836811       11.27840595815814
C           26.86278888939560       18.42939394538173       10.25079219346387
C           23.38141533577921       20.56656069593311       12.90284067953749
C           23.54733212026987       21.45452345095456       14.13977459049066
C           20.05833384803685       23.54025612434509       15.82617458746373
C           20.71593518232747       19.80438784079575       19.41734167560377
C           19.42782083085894       19.58439161596238       18.61457923563153
C           18.24278498998219       19.31312141777833       19.56121582669875
C           16.80278553777914       20.40030772645814       18.02493082591271
C           17.97998999327662       20.55764986847698       17.06361126077065
C           21.98316086120770       20.73249420505530       23.64642927668254
C           21.70773421115585       19.35758008788304       24.24893850637613
C           20.20923022564408       19.21867522967261       24.50322921442227
C           15.00244040517522       16.93061499219917       20.91855723064270
C           13.85582440324455       16.77101761946146       20.10894054803447
C           13.75625091620527       17.44674861801818       18.89848584798412
C           14.79951441219934       18.25453035915407       18.50799107393037
C           15.95232038199261       18.44402665498272       19.30134345811418
C           16.03153462943605       17.78323627505167       20.51951302951440
F           21.46090201654183       22.49486392963142       13.80435048510620
H           11.55588086984545       16.44615368839374       25.54411515391844
H           10.25690465578340       17.43919979333145       24.87625639464698
H            9.96117303341692       15.73377545184717       25.26841439487067
H           11.78316239946802       16.78225137504879       23.04782492686780
H            8.69872710993964       16.77827679761861       21.39548477905310
H            8.93750800790687       17.61470612712476       22.95478311035262
H           10.20126792807747       17.70436306510181       21.69038741775332
H           11.40225208847144       11.86968721223246       25.04635671702463
H           13.48823928452355       11.26965380406995       23.80088348676748
H           14.49464855461964       12.99869453678276       22.30221486095140
H           11.15630532981807       14.97251726136651       20.89095538520779
H           11.36631769404421       16.03149250418391       19.48599232922160
H           12.70480776010649       13.30660802582942       19.89183507921783
H           11.37829179905243       13.65775775792508       18.78073425640716
H           12.97680082522570       14.36713128112555       18.50360854342468
H           15.71118069963162       14.80492236889477       23.49857471091889
H           16.83431234026472       15.90675396014308       22.68972094376923
H           16.62187615525353       15.31699447592528       25.70915656023573
H           17.82488971920848       16.32739136801106       24.90548401320535
H           16.84751534674901       16.99098886909476       26.22168136444177
H           14.36758565507800       17.33855592685058       25.89102255737516
H           13.64594206433302       17.08580676401116       24.30246938443802
H           14.14484317062766       15.69895716659482       25.27208702875205
H           15.89675513600229       18.90607335142497       24.76083427114220
H           15.37874416081853       18.50939614513980       23.10909603056566
H           19.62530528671724       18.64615747311573       22.48752616862822
H           19.40590474660869       21.49312974890001       23.07886311895194
H           19.84417086860523       21.58119616685916       20.34415175343298
H           22.30939516523820       21.96903324993598       18.77291548699151
H           22.61283262384843       24.01654885905355       17.95818719292493
H           20.08347812505263       25.65334966356005       17.46997634584844
H           21.64516903319959       27.35837994430243       16.57115962314924
H           23.00927422507904       26.26366381159947       16.81076556352837
H           21.77445576143623       25.88598578494124       15.60830353782535
H           21.09717497314930       27.24246679834551       19.03279692885214
H           20.87017810974179       25.68130133038297       19.81748323656520
H           22.48078498063241       26.17393202466870       19.27761562787902
H           22.02620873870285       19.91096810821774       15.80601004910908
H           20.45323658709317       20.63279199167609       15.46328447726381
H           20.73757086768265       20.12728488667693       13.03448907571391
H           20.88717801337013       18.63118689191629       13.99987243680625
H           26.71715697143695       19.44669477329975       13.48641936319905
H           28.42522606514062       19.49793527127276       13.92794603277988
H           27.89881775210280       20.20205767750947       12.38881616812777
H           29.46708646814294       16.95925584586847       11.61174939950917
H           29.54746586527044       18.70492933092094       11.25842966718124
H           29.97555442725675       18.08933195631459       12.86481069111315
H           26.12425782511551       15.74971411508111       10.87240208693602
H           27.84494223307538       15.95729585897941       10.55321944767559
H           27.28248581628101       15.60325221337110       12.19867665554885
H           26.71014986462439       19.48969278188516       10.44038091284425
H           27.79315827655987       18.29434108532671        9.70501121814885
H           26.04170983457960       18.06672485542079        9.63818690533648
H           24.35753039374722       20.30250752713762       12.49645866692623
H           22.81273216341838       21.11466126198701       12.14368790372473
H           24.03203600156171       22.38947059231896       13.85861241176860
H           24.15776768845352       20.96278394374000       14.89571718608522
H           19.76326459134103       22.63207919572683       15.31298906838323
H           19.33589427145514       23.73354139065965       16.61628788161245
H           20.04943854564172       24.36487860533160       15.11303971546863
H           21.58486374775813       19.65529452515428       18.77624954929027
H           20.74539569021293       19.05937234077089       20.20978157945893
H           19.55101388703361       18.68843773989244       17.97869540736768
H           18.17837609909407       20.11556819841858       20.31332666117646
H           18.45143231502494       18.36715238285764       20.05957533046819
H           15.87685737679921       20.34451498891093       17.45905299953743
H           16.76502955223900       21.28656869359528       18.68138772264011
H           17.87065371662495       21.45784458414493       16.46385591630920
H           18.03192456477054       19.67650379725198       16.40828146873406
H           23.03001501103605       20.85390766652709       23.36842821498258
H           21.70036897700738       21.52234789172794       24.35014199550369
H           22.26227658675307       19.24241489298401       25.17990868512614
H           22.03892060749353       18.58671356115795       23.55145048629530
H           19.88928871830183       19.95865021664185       25.24099393982881
H           19.96999975493808       18.22595144782059       24.88268067402067
H           12.89408949688897       17.33465764057239       18.25771480646014
H           14.72679843633727       18.74321365309051       17.54699844586433
H           16.87730296170414       17.90533787867522       21.17278449247021
