151
 energy: -221.331623141049 gnorm: 0.006916456415 xtb: 6.7.1 (edcfbbe)
C           11.52534659806349       15.59910946492791       24.82095785767734
N           12.13593797703941       13.23335672096191       23.47536466860262
O           10.66462269373984       15.72633863564526       22.53592481921573
C           11.84719997235834       15.62445885440308       23.32859672173225
N           13.25302604969229       16.26628058819867       20.42106358158771
O           18.01581888600571       18.22635147766232       23.27982621767912
C           10.15846728246797       17.03752733878613       22.41384268879045
N           20.15278711024019       20.81112558297781       22.76370037390055
O           22.05946594847023       17.25739443407612       13.86547462489797
C           12.55672792797756       14.35049857518968       22.90357024467486
N           21.48606908629527       21.10009952540285       22.45346259222788
O           22.52157126288472       22.12092010109956       16.50383489472856
C           12.70316479997348       12.08411635134352       23.15097554603229
N           21.11192053596133       22.41378645338364       19.12138489657255
O           19.26599009659934       23.71259259190468       19.00686600472178
C           13.74021852769114       11.98350657352494       22.23760559765712
N           20.71472782567003       23.42815198059455       16.21775480193903
O           18.95098806700004       20.66476239873521       17.76469875330974
C           14.19167594277507       13.14486658097872       21.63702279130711
N           22.00262811691591       19.35732666939897       13.00492179965378
O           22.99634737792358       21.70089819332134       20.89589755604027
C           13.59533520939785       14.36262946548215       21.95749895348967
N           27.01524483131602       16.38527973109475       13.22019545371945
O           18.01553607508408       20.08560760165057       24.52966251428357
C           14.06170800915879       15.59407607614384       21.30890760040888
N           16.49428682480828       20.59459813152191       19.24574477810152
C           12.06438494878089       15.73265903610717       19.80507779671185
C           12.40336265082192       14.88384357201599       18.58039609366312
C           15.26304465382731       16.25270718148476       21.45734685796958
C           16.44218518565733       15.82005298761912       22.27105218247885
C           16.51116675503047       16.35781655400615       23.71769321412710
C           17.69330515236222       15.69340544010636       24.43007308292099
C           15.22220434951051       16.05038461648748       24.47842970941078
C           16.69388062051324       17.88092823477046       23.72077528289075
C           18.56719989191039       19.30945001068108       23.77977128975288
C           20.01073845328031       19.47119997499624       23.33212847235649
C           21.83709115379008       21.45877972128025       21.20876666305513
C           20.68333280599831       21.57235068957817       20.21073502506124
C           20.38801164394084       23.41261352858736       18.61452583222212
C           21.08695437951614       24.12851424179771       17.45044107529550
C           20.80177848082391       25.63459106958782       17.41744640180841
C           21.50472584925169       26.28640317418159       16.22866422017067
C           21.31020365600412       26.24977825008683       18.72249941914490
C           21.54659411888334       22.45761051682745       15.82426783041875
C           21.36566310477382       21.74617247828676       14.47390309080090
C           20.60648520595330       20.43266596785004       14.68024186739733
C           20.63326603241999       19.57437580948363       13.41430398701942
C           22.63642196882133       18.22588018979077       13.36654789376675
C           24.05157124421927       18.17941242870525       13.10530128642620
C           25.22874593004588       17.93353364847978       13.03330962443058
C           26.67317179473487       17.77676280358622       12.89246046693964
C           26.50612225842897       15.93347425283790       14.50018111083119
C           28.42033220108748       16.05565233787486       13.09222770961658
C           27.00668289828962       18.06902759412930       11.41981545663678
C           27.34577101573014       18.83089249152756       13.80031895047573
C           22.68322902594132       20.57957630505097       12.64989135657687
C           22.75288839528591       21.50963739671009       13.86168027331251
C           19.35922148764707       23.64650902871925       15.75783757435456
C           20.28158691239407       20.17273389193765       19.71887513905960
C           18.90118772946618       20.08689407167582       19.06498037889459
C           17.78262177244665       20.75176110974376       19.88820750295946
C           16.57293673760081       21.18744553011532       17.92459408145999
C           17.69796150942546       20.53200408503512       17.11763711068739
C           22.46094824239643       20.95783501065817       23.52380517893442
C           22.37962795304345       19.54769683693559       24.10558346634578
C           20.94342645498575       19.25321825345002       24.53496425228126
C           15.19490787083512       17.40438721154526       20.61380725391773
C           13.93394575085137       17.36660439115305       19.97787642884093
C           13.55617768453691       18.36804720843131       19.09266566202238
C           14.43343144914900       19.39981104818459       18.86623345203269
C           15.71232290526407       19.45797614791523       19.46596230943743
C           16.08945316040625       18.44204175950809       20.33392452306804
F           20.65349943959618       22.54570215187497       13.56738063047164
H           12.44053346938304       15.49623921874342       25.39379269000088
H           11.02277064906601       16.51617609874117       25.11765431195146
H           10.88050729017360       14.75065304295937       25.02570575225738
H           12.49386842982926       16.48426569235013       23.09142130262851
H           10.92002026723079       17.71082502319394       22.00243718952339
H            9.31747331875764       16.96706999840723       21.72944741965703
H            9.81388444936027       17.43235789743138       23.37309983664604
H           12.30306700667308       11.21438090294091       23.65334459564652
H           14.17405224158458       11.02585084056680       22.00121055080589
H           14.99116371617962       13.11905119962801       20.91138206906795
H           11.52697453169941       15.12963680844714       20.53753698385771
H           11.42629414830091       16.56845912661676       19.51292311106445
H           11.48881043254652       14.53003264153599       18.11553446553723
H           12.96677682776687       15.46972477622299       17.85804131897483
H           13.00109047979095       14.02279156708619       18.87202335442340
H           16.44977620411675       14.72983918081900       22.32764386779752
H           17.34930946652627       16.13885564884420       21.75355813433079
H           17.50650852786416       14.62883900836980       24.54294264137166
H           18.60852665123079       15.82709284300086       23.85964140663767
H           17.83315678220290       16.12565912500004       25.41848507442234
H           14.93972079165528       15.01172523318246       24.33804539507429
H           15.35626767386424       16.23273580266342       25.54068865778994
H           14.41386687119475       16.67997266868510       24.12247844283666
H           16.55648696339112       18.28680095476196       24.72772141852106
H           15.97307983052996       18.35679826718817       23.05072873607175
H           20.22839955672087       18.73356038911868       22.55282627483603
H           19.79587677161852       21.48746618397759       23.44255244608260
H           19.84396315247083       22.06456685619197       20.70406175658445
H           22.01199990490320       22.19070729479126       18.71353314249364
H           22.16623324588488       23.98691253269144       17.56099919036489
H           19.72246081856266       25.80057057039842       17.35910155384449
H           21.28703168349208       27.35060719998906       16.20768415688236
H           22.58147670594874       26.15713309639381       16.31773900065006
H           21.18901506871794       25.85055216594109       15.28483496043834
H           21.14809335068337       27.32073965189753       18.71804278289382
H           20.78521451322699       25.82774627418508       19.57367775876102
H           22.37392508240620       26.05831290979261       18.84476598839942
H           21.08216325551713       19.89872791335880       15.50442546439522
H           19.57572308478256       20.63882501918897       14.96405442048163
H           20.10362622422641       20.08348107829885       12.60598893708593
H           20.17374136769945       18.60502406301478       13.60604919161412
H           27.05385707929151       16.35495391524600       15.35866513396880
H           25.45327575400225       16.19424630823494       14.59314606464538
H           26.59547745358637       14.84773381119923       14.54161735438723
H           29.05372748202602       16.55265166123611       13.84276391851156
H           28.52293126200410       14.97954385306125       13.22708353310790
H           28.77544140859633       16.30731553921116       12.09744867738349
H           26.51264404065922       18.98704597222578       11.11205475685548
H           28.07660824491807       18.19294213088378       11.28238275966529
H           26.65327733409787       17.25239616903566       10.79715059040932
H           27.02987393162507       19.82773511301358       13.50457549449242
H           27.06584815954080       18.67633368799330       14.83968791136443
H           28.42657464343630       18.76639729713485       13.70729391767782
H           23.68897116560495       20.34752524864146       12.30025707718957
H           22.11850555325843       21.06189740240081       11.84746009770192
H           23.16765086158896       22.47536766813977       13.56787658711301
H           23.38809920880966       21.08011303054596       14.63712509800319
H           19.25849303550834       24.63988409587672       15.31853217804423
H           19.06922208210806       22.90751407206132       15.02216192989489
H           18.69178578935045       23.57229583633832       16.61766020586131
H           21.02671144984738       19.83979550266273       18.99266879167273
H           20.28744757299621       19.48701803329758       20.56199974758594
H           18.65319464650985       19.01661682729856       18.94336253964261
H           17.97173055096758       21.82935890123121       19.92337824609286
H           17.76539985528185       20.36415330613550       20.90518218433927
H           15.63791117371075       21.08939416503918       17.38285975477785
H           16.80200290763446       22.25032509964555       18.05315977733101
H           17.79927802014607       21.01576483121990       16.14635108650244
H           17.47455368029684       19.46293025473689       16.97495378251592
H           23.44156717829055       21.16202222487017       23.09473332122585
H           22.24098793995076       21.70161732512614       24.29707338718049
H           23.05191974906568       19.46687296125318       24.95749760654038
H           22.69123241018038       18.82835867928696       23.34710050287996
H           20.64152484407143       19.92881236343300       25.33904992894285
H           20.85145487079541       18.22848859942257       24.89343898835897
H           12.59459093557833       18.35914580641599       18.60348027864556
H           14.11516441508067       20.20276102870812       18.22241039199213
H           17.05768658071285       18.43557217139743       20.80931284344427
