151
 energy: -221.321803016301 gnorm: 0.009881789074 xtb: 6.7.1 (edcfbbe)
C           29.93378305694224       -0.30322816010678       18.74991421695683
N           27.88531503090951        1.07707345859077       17.42344355281738
O           28.53048415172047       -1.84046817601319       17.44229549476767
C           28.55952785913644       -0.94157146276233       18.55139921613643
N           25.53260054846960       -2.26914730364406       19.32547377142408
O           25.18493114889073       -0.25039418289207       24.70486494799818
C           29.23700328385490       -3.04637073924218       17.63962921472505
N           23.12738713860188       -1.44016660338516       27.33080629053816
O           13.55830134471665       -6.50588370640275       21.22840369621363
C           27.51349078970837        0.11480967771294       18.25625625173631
N           21.99700351227690       -1.00620480372001       28.03015189437338
O           15.99798196691786       -5.00822974640811       26.69848635918227
C           27.02982631348727        2.03245650371988       17.10977509203022
N           19.58425622249444       -3.70646914737198       27.54802610198322
O           20.45007977473413       -5.35451056652090       28.81951463770117
C           25.74404832144655        2.09687583584551       17.62545536148876
N           17.83174810858362       -6.22261848569313       27.18121074759721
O           21.53667723274017       -5.42136709225831       25.88127278984102
C           25.34716238513602        1.09799283795069       18.49402690648551
N           14.48793726124999       -7.38577688262490       23.09883666322336
O           19.83988975748930       -1.29144485540027       28.58167971334035
C           26.23213527269113        0.06876516524752       18.82086646444180
N           10.23806741952687      -10.67068644651351       22.06794688894834
O           25.72381603684616       -1.63179976555813       26.38519643795620
C           25.75465354582088       -0.97321758436249       19.73818072653248
N           23.03217152593308       -4.18870321118322       23.86517275983313
C           25.58184351033525       -2.74580858728160       17.96566767956263
C           24.22157208312913       -2.60405592899830       17.28380428317256
C           25.34447191814062       -0.80824740962314       21.04269432837406
C           25.45552195813091        0.43678501303955       21.86261950868180
C           26.62169758825408        0.45825534205649       22.87973725925713
C           26.70895854931002        1.86022232752866       23.48938735683469
C           27.94050195929861        0.12055463748660       22.18526882216846
C           26.40053842531959       -0.55889656412791       24.00429542182659
C           24.96398998247616       -0.85023156467152       25.85605702423340
C           23.65702291378290       -0.38430884327295       26.47427412812534
C           20.84698872661680       -1.69550254200563       28.00824813227958
C           20.85143581196341       -3.05249779958569       27.30048808753160
C           19.48773356742358       -4.81542602206017       28.28896777897963
C           18.07067691458759       -5.40162060612522       28.36829722942764
C           17.88401367914450       -6.20163022272467       29.67127408215483
C           16.54094005884413       -6.92587243618846       29.68287311910511
C           17.97556853493338       -5.24348767721796       30.85772726865686
C           16.73369602075779       -5.96975149904904       26.45893357817786
C           16.30287349020357       -6.84731356116730       25.27106701194437
C           16.30521439197891       -5.99592920429127       23.99638593832664
C           15.78577182980693       -6.81567264049713       22.81730571497828
C           13.47346026178489       -7.21708726108101       22.23427445706882
C           12.25992358475309       -7.95117301245910       22.49063113223043
C           11.21615009413773       -8.54912663558832       22.41422904981001
C            9.93933431458792       -9.26168537122298       22.36556537771641
C            9.11608469563542      -11.58089342409050       22.17321493817172
C           10.92428466539381      -10.86432964253110       20.80432832505809
C            9.27958863224856       -9.12953964315767       23.74676967889603
C            9.05920310784369       -8.55936431674268       21.30809590727872
C           14.42766308614565       -8.19767742968405       24.29268748563225
C           14.88688357061245       -7.39222806773165       25.51024876774383
C           18.80165680491969       -7.27199834119596       26.92773542865603
C           21.12072771298065       -2.97931140963009       25.79278946050192
C           20.97448339460445       -4.36119819695440       25.12540414559038
C           21.59587149220779       -4.32845897273459       23.72175524338942
C           23.57889658862273       -5.34284093208921       24.55248567864733
C           22.95279999034731       -5.38450426321867       25.94546903119601
C           22.14273469651057        0.20519806538431       28.82605227131662
C           22.64154274852558        1.35037165613481       27.95050328773197
C           23.92665916634840        0.92378728048708       27.24455170358873
C           24.80025506140181       -2.06138637125973       21.45058829116401
C           24.94411911784319       -2.94908900831390       20.35476726425210
C           24.51477817207586       -4.27018709241998       20.42987828930995
C           23.91249063823137       -4.69328887553437       21.59362116820494
C           23.70714086302521       -3.81015716022452       22.66451322675058
C           24.14367843218597       -2.50411432342727       22.59703517705027
F           17.13380626935557       -7.94518639854012       25.05769534006695
H           29.87916851875783        0.43887244589045       19.54074492779613
H           30.66871089903386       -1.05368327947453       19.02613034581076
H           30.23402081312363        0.18207018947147       17.82589394816017
H           28.26849059598853       -1.49693761917075       19.45865131417735
H           28.94435916395543       -3.51745263050028       18.58449257365102
H           28.96192127493996       -3.69012152493960       16.80764101536711
H           30.31808030134084       -2.88799660795200       17.63254242454976
H           27.39919394331731        2.77879599652355       16.42018533087357
H           25.07760041471099        2.89832698760195       17.35137697264825
H           24.35294706336411        1.09173606530991       18.91747809235207
H           26.33702864511621       -2.18023717245948       17.41790973912964
H           25.88311718900661       -3.79598139291405       17.98177518165318
H           23.91602348648099       -1.56096939472814       17.26889648726440
H           24.28128288157604       -2.96290518090464       16.26176768173376
H           23.46793520772686       -3.17789948138614       17.81747947637628
H           25.60366288432936        1.27962853556508       21.18803644009083
H           24.52600385211683        0.58997044924756       22.41091871417128
H           26.94324993466173        2.59111252033151       22.72046089696206
H           25.76422610390215        2.13165872904042       23.95221548847038
H           27.48833998177437        1.89539905067141       24.24662479384150
H           28.09246748433053        0.78892396057252       21.34085814085811
H           28.77508622014435        0.23228803155000       22.87267277477951
H           27.93180274376504       -0.90163595360562       21.81822571291021
H           27.22750713987069       -0.53404458534351       24.72069978190282
H           26.31881179196570       -1.57424438584152       23.61100068402231
H           22.93090009265115       -0.19145597106879       25.67866143394428
H           23.85844490811072       -1.75149860349280       27.97105303470671
H           21.60781335655728       -3.67996810837946       27.78406763578552
H           18.74951957624678       -3.22729819981016       27.25484124235058
H           17.33559835953909       -4.59029397517084       28.33787322362444
H           18.69822568292158       -6.92880746109470       29.74578374407968
H           16.47932667458272       -7.66690742466649       28.89105747879355
H           16.40236483673628       -7.42681289673956       30.63557270933540
H           15.73205591626414       -6.21080987669370       29.54438486224062
H           17.93453916433968       -5.80081695364384       31.79470794534062
H           18.91295476293872       -4.68660041830373       30.82655571085811
H           17.14654982656283       -4.53095238776801       30.83510845416810
H           15.67238771967229       -5.12824116348097       24.17789984882564
H           17.31759910678014       -5.65364237073438       23.77937454940148
H           16.48993542252916       -7.62895435136963       22.60882407996120
H           15.69159425040138       -6.18930692122025       21.92758398362009
H            8.32046374090667      -11.38162176312574       21.43936375670946
H            9.49021767420313      -12.58840825442313       21.99405246995634
H            8.69614398425280      -11.55068349417801       23.17368759657541
H           10.25029760452042      -10.81375725870250       19.93728739131877
H           11.70308891676498      -10.11456063971049       20.68803280733648
H           11.39037424096446      -11.84928108699738       20.81490120736476
H            9.81695242830419       -9.72938735056210       24.47516772572103
H            9.30619977329874       -8.08945585953159       24.05841859295729
H            8.24324491712839       -9.44906432341608       23.70508623564762
H            8.12814898079707       -9.10565202073804       21.17486719613155
H            8.83120140470189       -7.55049444301769       21.63846763839452
H            9.57680899265249       -8.49675664543987       20.35301937378736
H           13.40570581749195       -8.55118065928650       24.43297901194732
H           15.09150160990082       -9.05946193904440       24.16972382293861
H           14.88461649942301       -8.03520395189128       26.38950194061137
H           14.22937644387430       -6.54493565871523       25.69219930035079
H           19.65522378804304       -7.11618201959992       27.57993124855864
H           18.38200867587749       -8.25857882200871       27.11975123052416
H           19.16151817711729       -7.22922695253096       25.90354036498114
H           20.40870952274165       -2.29974114894615       25.32563517286937
H           22.13205493202273       -2.61564369710317       25.62726139439120
H           19.91327342710427       -4.62619140539689       25.05552017714859
H           21.20961317577440       -3.47742030295824       23.15782057638805
H           21.32383912285200       -5.25923885996820       23.18948600267675
H           23.36405844925756       -6.28985109146779       24.02565624469598
H           24.66026014192783       -5.22207737514537       24.64207286498681
H           23.29188409283833       -4.51026342351548       26.51274101228171
H           23.23738585071182       -6.29266827702032       26.47868498165203
H           21.16869933196358        0.42513560134577       29.26305860110661
H           22.86057963916308        0.00392426434840       29.62851477216005
H           22.82244344199981        2.22688395587499       28.57079472691269
H           21.88019373652590        1.60015538384990       27.21043886109085
H           24.71793593187835        0.75033110969717       27.97840113295955
H           24.26154879780718        1.69430382620040       26.55105618681708
H           24.64198156851151       -4.94707410703920       19.59910215986194
H           23.56984787357528       -5.71503807524690       21.67237394317142
H           23.93638101391296       -1.84777252389599       23.42499532136964
