151
 energy: -221.325604248561 gnorm: 0.009762480276 xtb: 6.7.1 (edcfbbe)
C           30.52517959532057       -0.62286433265828       19.18572872780199
N           29.20632289351084        1.60851650849688       18.06144865894842
O           29.07559947707241       -1.21872400859061       17.28854167656439
C           29.10533724443764       -0.72557535916326       18.62923461297936
N           25.85362334431171       -1.27298247759989       18.92463387665526
O           25.55467965352106       -0.39232617267190       24.60296766577096
C           29.38227208872378       -2.59043660375386       17.15092493523005
N           23.22525084225479       -1.92874762980752       26.85577964985275
O           13.99631578423332      -10.28796744086694       22.23132825687419
C           28.45294682424110        0.64221254827605       18.56820375635363
N           22.11730761813797       -1.49157535190980       27.59323920590897
O           15.78067113934176       -5.27952939329124       25.76027058709569
C           28.71149257854576        2.82668265106399       17.94861967317780
N           19.38642984274270       -3.73801821288692       26.67991819981668
O           19.89521369133808       -5.28409500356760       28.23715941486972
C           27.42234068134000        3.16081330696990       18.33734324044523
N           17.14781171650760       -6.22564828476832       27.28429672023569
O           21.87671377447660       -5.34237358261698       24.96597941239697
C           26.63107137745375        2.16199588435983       18.87080435869896
N           13.96221155747820       -9.31072741931500       24.27931668145652
O           19.91448837228278       -1.54180112412109       28.00317106059717
C           27.13746239208701        0.86726060401444       18.99654131950865
N            8.73820139263415      -10.53197388132651       22.77537986814768
O           25.73280601084761       -2.30725410878145       25.75633338312269
C           26.29114242669931       -0.16070079830610       19.61186672006576
N           23.04703640570051       -3.70729797726783       23.01645725633037
C           25.93036065602164       -1.45989312414313       17.49649021469400
C           24.70591206994127       -0.87167018346931       16.79690904665416
C           25.81384584155465       -0.17730131465182       20.90375988802345
C           26.02032891409615        0.84769061505601       21.97266251947299
C           27.13119355304576        0.53696427129052       23.00202425471862
C           27.32004814354716        1.76592067444517       23.89632973882527
C           28.44149979566395        0.21773930921659       22.28287884182560
C           26.76275303095780       -0.66813385252582       23.87674193816805
C           25.14583356279987       -1.28296683490268       25.48879826968003
C           23.87109540411218       -0.81196698570535       26.16904566066528
C           20.88861983781656       -2.00102341178317       27.41515681558138
C           20.73972772202243       -3.24345930974212       26.52568968243812
C           19.05945192300082       -4.66646466707613       27.58743534231223
C           17.55276239752998       -4.90161135262682       27.75294092328543
C           17.16191076442249       -4.68986922942288       29.23270347153132
C           15.68740973878332       -5.01751973873393       29.45438250198250
C           17.43633491678526       -3.23929180413843       29.62641455754473
C           16.16376434009667       -6.27761858913334       26.37645976937163
C           15.46218658338225       -7.61278581501708       26.06358064383531
C           16.12759020114403       -8.33175484883067       24.88703744311758
C           15.35294820424854       -9.60479559431088       24.54247658171490
C           13.38371326505125       -9.70216675495824       23.13015791885134
C           11.97512058680045       -9.43441644772056       23.00310157908528
C           10.81224861408058       -9.30141493370170       22.71228580685685
C            9.36454817709215       -9.22260512398578       22.51678980647161
C            9.02670030500055      -11.07466670457011       24.09201782438380
C            9.01350403708521      -11.53556490453338       21.76079194984049
C            8.77982596877960       -8.17109501451562       23.47474406591537
C            9.07651730440569       -8.76490789881411       21.07935443397294
C           13.27573542317064       -8.64508465284581       25.36156317207319
C           13.98926439943965       -7.34446187575392       25.73250444303495
C           17.76080854802501       -7.36639892695436       27.93415951406879
C           21.05275119344645       -3.01902431461350       25.04768430430440
C           21.11012865768397       -4.35758572549817       24.28786479954286
C           21.67113403834671       -4.13831196541362       22.87408925494703
C           23.83591156200046       -4.75779978038822       23.63704176429906
C           23.26119200292433       -5.03279090636504       25.02405492225761
C           22.35628990222872       -0.42752011844341       28.55992854139163
C           22.97157188085851        0.78228416283432       27.86361545538955
C           24.23207181422618        0.34245604529262       27.12370048015208
C           25.03503255134703       -1.36477622336228       21.02219105572081
C           25.07442680434221       -2.01730032051500       19.76501738017496
C           24.40118034023140       -3.21641879922749       19.55485765242064
C           23.71876077923394       -3.77709908600892       20.61350361409922
C           23.67523385201854       -3.14441742284122       21.86397621817293
C           24.30459826295074       -1.93376848655617       22.06089737011545
F           15.47983377652041       -8.45142392349465       27.18320997851098
H           30.97650208628591       -1.61255851617486       19.26127808881972
H           31.12017456508467        0.00327646464601       18.52115987926091
H           30.49476161795012       -0.17028422902802       20.17676677117850
H           28.50362191547482       -1.39501024454241       19.26541396424350
H           30.43344957618553       -2.79526766002963       17.38330777711715
H           28.73741780497673       -3.20215071125956       17.80074077164413
H           29.18698319043784       -2.82891594351367       16.10284254230205
H           29.38416223583950        3.56377635090441       17.52921574485153
H           27.05592466626150        4.16754801733225       18.22266449434441
H           25.61614977043643        2.36184918288364       19.18297036928640
H           26.83687665038547       -0.98056308398833       17.12322418385800
H           25.99741994226803       -2.53153885447553       17.29434243560176
H           24.65597046417366        0.20133663875265       16.96661410226998
H           24.76904485086413       -1.05294039871846       15.72810704288594
H           23.79507684280176       -1.32673352255475       17.17916585675169
H           26.27463020052231        1.79884341224967       21.50234040113640
H           25.08294556526874        0.97236532623554       22.51634203220195
H           28.06485311077504        1.56623882189337       24.66435338537914
H           27.65447774245818        2.61342779883489       23.30437899888930
H           26.38337134981483        2.02866972852467       24.38274782093120
H           28.34394428171435       -0.69361652731469       21.69835726201015
H           28.70027503323467        1.03117527176762       21.60933404691573
H           29.24960579417477        0.08643609089293       22.99777775591799
H           27.55904844771274       -0.88237751335678       24.59717607106374
H           26.60553978581066       -1.56335691793528       23.26653208298662
H           23.17834417242997       -0.44144480339871       25.40594964124974
H           23.90347760263214       -2.38379977125938       27.46912818269321
H           21.40144466180553       -4.01991941464067       26.92805992654211
H           18.65478626953778       -3.17879293167023       26.26538473943133
H           17.00107220752376       -4.18692020817962       27.13618805383931
H           17.78480665794076       -5.34695384730557       29.84613592058449
H           15.41330202896388       -4.80382337136191       30.48281477963565
H           15.06793979867273       -4.41100554684195       28.79611042155558
H           15.47312790323003       -6.06396457698192       29.25392942847407
H           18.46159884583001       -2.95247152985031       29.40330470945249
H           16.77257512795777       -2.56861112610778       29.08526311007761
H           17.26632287204271       -3.10695838548499       30.69176060787913
H           16.13026163708471       -7.64567075184063       24.03982652762418
H           17.15728753066889       -8.59364231930521       25.12792856950664
H           15.41340583358022      -10.30405218141342       25.38446391621420
H           15.76898931313857      -10.07858580748415       23.65115378660247
H            8.39884030308983      -11.95429193748092       24.23814208496416
H           10.08111099253541      -11.37537156290013       24.20833685376519
H            8.77745957268944      -10.35164794273876       24.86451438242964
H           10.08996461753128      -11.72040074840018       21.62065309912125
H            8.54445609283327      -12.46749062740325       22.07163761880279
H            8.57458149961661      -11.24221263857124       20.81120863340000
H            9.09006950570872       -8.34012741673346       24.50258426070233
H            9.12221546249743       -7.18169330935096       23.18032869198777
H            7.69491847618167       -8.20767526443714       23.41739887814508
H            8.01197132084709       -8.85829520958479       20.88382015331264
H            9.36792999055289       -7.72473908144857       20.96402749984821
H            9.63389991310410       -9.35079128991071       20.35348823707639
H           12.24992869431400       -8.43473405090412       25.05821192764302
H           13.26408647854389       -9.30897590633053       26.23384000813193
H           13.50255954160974       -6.89812609843657       26.59960367367232
H           13.95561750675880       -6.63021863561716       24.91104785153902
H           18.75311794417839       -7.06796387814130       28.26639211828441
H           17.18075553388909       -7.69722869705123       28.79563435668131
H           17.86522442975479       -8.19426296733060       27.23873701694065
H           20.28392794054719       -2.39435362328540       24.59520668531467
H           22.01817713527409       -2.52901805448014       24.94739297507723
H           20.10938059630105       -4.79945066058284       24.23182750529665
H           21.10545810140710       -3.36061294200187       22.35875847935482
H           21.57745346957663       -5.08409723601415       22.30915431442469
H           23.81972854693044       -5.68475369045078       23.03662378968206
H           24.86788702001001       -4.41803144246193       23.73723124958876
H           23.43609294060477       -4.15867189797906       25.66071286699342
H           23.73271215641420       -5.90863501538699       25.47238878927568
H           21.39764520499925       -0.18543894575671       29.01794411340754
H           23.03737923363681       -0.80966683276280       29.32791674909448
H           23.21136001000380        1.54490943055485       28.60339183443184
H           22.25158379950049        1.19760323824254       27.15722280747746
H           24.98095154679358       -0.00519386715963       27.83940936264203
H           24.65547501966034        1.16599565021509       26.55121500448691
H           24.41975119680689       -3.70976792958893       18.59501111999608
H           23.20815658191629       -4.71974237565139       20.47808451669597
H           24.21373829599706       -1.45862840225074       23.02199895671485
