151
 energy: -221.322595457129 gnorm: 0.005052655045 xtb: 6.7.1 (edcfbbe)
C           30.39130797724512       -1.46921927260991       18.69206839930154
N           29.97514994776177        1.33409084541187       18.69850330218037
O           28.73494926293657       -0.73441275418327       17.02158146715098
C           29.01910987956147       -0.85721147679296       18.41587605065833
N           25.83304993995840       -0.38652405651564       19.10057851258862
O           25.93627265889575       -1.20451475708750       24.80020520362878
C           28.50598654246576       -1.95175567937341       16.34634372096317
N           22.97947604629001       -2.08095225266452       26.64239782560825
O           13.18504925177415       -9.93989756227284       21.97756774308990
C           28.93605777346808        0.55496512976226       18.96233027761806
N           21.90632805943710       -1.38626935865633       27.21254610325953
O           16.35811113053680       -5.37672600190095       24.67322705313329
C           29.96682882399442        2.58819528167606       19.11092161694078
N           18.99834391954014       -3.29883444749250       26.14495207608837
O           19.33465978729424       -4.90291781263585       27.69250501205208
C           28.91190400045078        3.14678048305088       19.81660237284627
N           16.71042721764397       -5.82890366167839       26.84631929295639
O           21.28362639393510       -5.01675611080588       24.28304680622018
C           27.82598941192435        2.34024483206824       20.10179776319143
N           14.06445811715653       -9.41916369137579       24.00101973282544
O           19.69423265576856       -1.04826241830571       27.38207138371192
C           27.81822052515017        1.01242896090735       19.67357931087519
N            9.15622369261793      -10.99819229598117       25.88344580205084
O           25.34761611288214       -3.12792976025834       25.79038379036244
C           26.69007447096627        0.14839233974620       20.03672316966401
N           22.63205918729347       -3.31925225452439       22.50872636965983
C           25.73278929054548        0.03939090157678       17.72653642364573
C           24.81131052042772        1.25055467716119       17.59181168846786
C           26.33917883087373       -0.26005272379522       21.30470567618874
C           26.96091060483370        0.21396025171337       22.58117896279837
C           27.85353789945151       -0.77313875040059       23.36843317137068
C           28.64268809770521        0.02902720466341       24.40782653046573
C           28.81690423644115       -1.49278007022394       22.42555091721925
C           27.01993577247721       -1.83358534371014       24.10081594124634
C           25.14318090202567       -1.96148780056420       25.53702346368068
C           23.93801177945176       -1.17022235644208       26.02345719906468
C           20.63249197479814       -1.68928918178392       26.91963427629931
C           20.38736691134242       -2.91036495689623       26.02447900295158
C           18.57410057049806       -4.23401469719305       27.00165853462785
C           17.05140477669539       -4.41663619603739       27.03991126308261
C           16.47479957079691       -3.82306434638764       28.33899417450029
C           14.95654214323980       -3.98939544502712       28.37759210217944
C           16.82185985911070       -2.33797641172116       28.42498783375621
C           16.39243415409803       -6.19313201200594       25.59775836375018
C           15.92330680092171       -7.63107425955455       25.28789358423544
C           15.95198894036708       -7.87943379306124       23.77915837713618
C           15.40073001978768       -9.26796402151239       23.46905095009931
C           13.05315323816794       -9.77941022139681       23.19468778284756
C           11.76986939450151      -10.00420531215290       23.80706529977564
C           10.64930059905643      -10.30653739768402       24.13166866187310
C            9.27352886256518      -10.66779972004696       24.45558260303123
C           10.23441280942786      -11.81233710196030       26.40677768911473
C            7.87343360352697      -11.55915064089667       26.25930000028470
C            8.41583944902830       -9.42712671546504       24.14808212379803
C            8.89144942658804      -11.81945446232672       23.50037768113241
C           13.96058974507688       -9.22134255457829       25.42645395169123
C           14.50350680173932       -7.84356557663130       25.82485188661328
C           16.93303241207499       -6.70243491912171       27.98250988084075
C           20.72721177104768       -2.62907098729534       24.56202943053495
C           20.63472699752977       -3.89885791668339       23.69568028534991
C           21.23267440782062       -3.61266219783137       22.30649303533794
C           23.31896871849529       -4.48117312786842       23.04325756514257
C           22.69010389246145       -4.85888256844784       24.38325746108958
C           22.23131589587513       -0.31893421641135       28.14982714863832
C           23.15648100833950        0.69252971550915       27.48025125695531
C           24.39295222460166       -0.03656424677653       26.95990170086387
C           25.19983285476056       -1.10383457344734       21.14405892294479
C           24.89784717303811       -1.13718760405649       19.75887479511186
C           23.79930971896227       -1.84204797766541       19.27990755464536
C           23.03621485969480       -2.56449931128567       20.17403167759095
C           23.34533029933705       -2.57765416800367       21.54177797503815
C           24.39763907981139       -1.82073243419500       22.02342101178979
F           16.78290748449789       -8.58201562705684       25.86156123929129
H           31.15600756383590       -0.86157527272023       18.21829013793693
H           30.56361017078751       -1.49223475493060       19.76392278063877
H           30.44087482669526       -2.48473619493401       18.30963097581219
H           28.23763173148859       -1.47976546287432       18.88146559698536
H           28.15007909957150       -1.67515061331896       15.35576233703717
H           29.42119100884902       -2.54428457228038       16.25030774711733
H           27.74197449324718       -2.54776996725205       16.86282818142783
H           30.84826973811743        3.16388666763363       18.86476072682706
H           28.94308083438489        4.17711030326068       20.13185048794062
H           26.97513159800216        2.72735200337416       20.64331186578883
H           26.73066405229556        0.28746947735985       17.35876754114585
H           25.34572105469569       -0.79468424723363       17.13689220817588
H           25.21736867389849        2.09397833445991       18.14532659733839
H           24.71893864566398        1.53151867205435       16.54710627276889
H           23.82380419328432        1.01984216672033       17.98481405252310
H           27.58361134378001        1.07753468658538       22.34266259374688
H           26.16266037588996        0.54631870130231       23.24796410190196
H           27.96248032716940        0.55825806791304       25.07042791949458
H           29.26499887071855       -0.63137256112516       25.00701132194104
H           29.28692057267316        0.75383278697582       23.91822267953428
H           29.44433136680208       -0.76653970530618       21.91535467151665
H           29.45399334256470       -2.17770933139953       22.97944288851919
H           28.26749841463818       -2.05826049850097       21.67659959085801
H           27.63442909865924       -2.38650871236676       24.81810381123137
H           26.59937698870404       -2.55246803323936       23.39167856695027
H           23.45212996491622       -0.72654679973119       25.14536813561527
H           23.45163731212883       -2.65322960784954       27.34406078713036
H           20.98391955051672       -3.74708396214817       26.40134436079968
H           18.32640207434753       -2.70171618109296       25.68633302994676
H           16.61035901074991       -3.88971771771766       26.18783858974866
H           16.93651629932322       -4.33120129393774       29.18965632145203
H           14.56959798763527       -3.60026200153497       29.31506422689244
H           14.50387611350196       -3.43384472217252       27.55987806102922
H           14.65782936925225       -5.02852877131056       28.28442662092533
H           16.41132688910169       -1.91923058504521       29.33955777539157
H           17.89600250652061       -2.17120719678328       28.42909225390749
H           16.39952570505471       -1.79575209789351       27.58230610723448
H           15.36226575507991       -7.10664127344865       23.28815779820005
H           16.98002770773549       -7.80249365594597       23.42431266747029
H           16.04944909062964      -10.02768227040897       23.91988250030260
H           15.35307633868633       -9.43023736228940       22.39122423494474
H           10.10067707297584      -11.89941531047786       27.48176692731817
H           10.26548088284951      -12.82343308837874       25.97941630584257
H           11.18613584792072      -11.32463970091777       26.21320153703479
H            7.74848275960896      -12.60390994311319       25.93825527377573
H            7.79887029881922      -11.52815149900951       27.34599870440379
H            7.06514329406564      -10.96276371210958       25.84725128380244
H            8.66964934865764       -9.04323592064849       23.16353969562885
H            7.35919524922018       -9.67455063204527       24.15735123505233
H            8.60896706803088       -8.65867065701932       24.89007446034980
H            9.12477484881325      -11.53678831324655       22.47710543466946
H            9.45464516051756      -12.71851561847530       23.74147001927264
H            7.82849609095351      -12.03282552424983       23.57128606977528
H           12.91430976489048       -9.30636572509177       25.72312510877954
H           14.54481717915287       -9.99714131190577       25.93534280073051
H           14.49341521415145       -7.75809561355986       26.91063287122898
H           13.87680382499844       -7.05752768554093       25.40288857774137
H           16.26315795502262       -6.43184914992134       28.79616181677298
H           16.77539922522725       -7.74137232045191       27.73018687269131
H           17.96540390677126       -6.57887022230712       28.31378938894607
H           20.03741628797848       -1.88590005961596       24.16233576233659
H           21.74136447725881       -2.24223035740898       24.49353495123183
H           19.59198006635358       -4.22147026035202       23.60416707385825
H           20.74048287058833       -2.74840787559659       21.86054796766429
H           21.07207625950657       -4.49595136405064       21.66452646727627
H           23.24303198157457       -5.33517178715800       22.34627593209857
H           24.37287469667544       -4.25024246568290       23.19943718342371
H           22.94209534092769       -4.09710766476767       25.13031002550998
H           23.06505062092796       -5.82549371806525       24.72346392897043
H           21.28986083338166        0.13489987777283       28.45874516504255
H           22.72249039266755       -0.76160932536867       29.02303457706615
H           23.43966576893554        1.45960103204321       28.19894283946992
H           22.63093939789166        1.16880214703292       26.65150652781099
H           24.95511964484169       -0.45972076987568       27.79563550271481
H           25.04364969013271        0.64135721139875       26.41058516260393
H           23.54616538856167       -1.84160178234049       18.23074271312741
H           22.19071779120290       -3.13241514461242       19.81645966189285
H           24.56011326548344       -1.79966823827535       23.08460183128373
