151
 energy: -221.315799369980 gnorm: 0.008646533381 xtb: 6.7.1 (edcfbbe)
C           29.85945363653643        0.00337639326243       19.14019191475361
N           27.82132602548381        0.81198957465881       17.31176505641115
O           29.07890403671094       -1.77453266365646       17.62725975745386
C           28.72010699647200       -0.92055302764146       18.71426883543964
N           26.02607340608564       -2.68384900457682       19.46814745263976
O           24.58148248621725       -0.05914334491224       24.42639514594913
C           30.06775791603039       -2.73685069924403       17.92549784406381
N           22.64953704025385       -1.48296297402888       27.05919010483002
O           12.54161132770800       -5.21134318463395       22.08676299438076
C           27.53594395994736       -0.11300855224219       18.21689868302983
N           21.37994409040090       -1.28452380469375       27.60934353262873
O           15.77948365126176       -4.94413856602650       26.59938532636599
C           26.85011162955792        1.55412279611436       16.81072610212473
N           19.60599036681092       -4.45239467064289       27.14896546858813
O           19.92846136860530       -5.25049257980960       29.24316113454771
C           25.52372489380636        1.42394454523698       17.19012137734383
N           17.62522633132122       -6.22839848946864       26.74090590209390
O           22.66017587153413       -5.72793790653387       26.42436742339382
C           25.21577879759538        0.46543191303269       18.13670667491589
N           14.43501035885628       -6.39959403581872       22.48569893543682
O           19.29025893530795       -2.00944413981109       27.98766384152935
C           26.22839322364031       -0.33402187251365       18.67113329244259
N            9.40386205436144       -8.76689832608516       23.82792006663916
O           25.25502813573760       -1.20062236848120       26.23374487590236
C           25.85848642511255       -1.33083560497232       19.67916046138798
N           23.78239446019402       -4.53955319113371       24.16156464611386
C           26.31931294742605       -3.30381201716990       18.19936937311984
C           25.04236525401169       -3.50769410202926       17.38334897715491
C           25.26550086127370       -1.10508622635067       20.90163907074985
C           24.93085446418643        0.21327221124611       21.52318103069339
C           25.94402152090652        0.72604022068157       22.57418073704230
C           25.59497208045341        2.17421512705509       22.92908901904624
C           27.36424798461664        0.66613038515955       22.01106033471279
C           25.89715882420184       -0.12170945451029       23.85030057447264
C           24.39499397081538       -0.63084954258616       25.60031881609687
C           22.96347214706611       -0.44621925424655       26.07925785672219
C           20.42351549317402       -2.22689460020482       27.56857820708738
C           20.79746004033604       -3.63380004516669       27.08092159828533
C           19.23189632155962       -5.12994257464785       28.24527936817624
C           17.84018702781554       -5.76582436025961       28.10723244305796
C           17.52323583198211       -6.79944820641558       29.20940289299415
C           18.46282489747599       -8.00271889651817       29.27807938334062
C           16.07789036439778       -7.27180165359734       29.07655395796487
C           16.59623430371368       -5.69771311213576       26.06420047661816
C           16.35918271831719       -6.04155213643468       24.58038654002109
C           15.67738374885985       -4.85626623234761       23.88820056310601
C           15.27532829222755       -5.22441782728754       22.45999878349673
C           13.09671592104567       -6.26716338959793       22.39893825674965
C           12.32766937570025       -7.44705741616723       22.68900239746002
C           11.55509402337948       -8.31156347894329       23.01383829688297
C           10.65992208757434       -9.39749316687468       23.40214471861580
C            9.55174010780976       -7.89903689190135       24.97943687279555
C            8.27356748716393       -9.65689446623388       23.99210610604386
C           10.43669853692469      -10.26318557182552       22.15271305310796
C           11.35598695736542      -10.23770653803426       24.49514961090062
C           15.09677370693474       -7.56456176085453       23.02365619993239
C           15.50682061985465       -7.31150268547815       24.47842376407002
C           18.59634789982713       -7.16623726219879       26.20397582321405
C           21.38575981302061       -3.74834458823483       25.67617319606261
C           21.83249349876628       -5.19615816993508       25.40150243747297
C           22.54396294298134       -5.28167982349599       24.04738273538541
C           24.65598360289100       -5.16700699821920       25.13251909994518
C           23.94552261900641       -5.13118531783232       26.48556881232705
C           21.13472009232597        0.01109352348332       28.22901953689444
C           21.40379398365176        1.13136818152816       27.22864441866757
C           22.81155673522569        0.97484028390681       26.65587524573010
C           25.03498761552302       -2.39024499337098       21.47279356290848
C           25.52498762043056       -3.34893559972935       20.55152235921642
C           25.47776571581567       -4.71144778102529       20.83048526868210
C           24.92889919165059       -5.11310466340625       22.02808169510391
C           24.39229460384265       -4.17589933405948       22.92581760562324
C           24.43297182858920       -2.82723321435958       22.64932710863816
F           17.55977855303949       -6.25682842444208       23.89442692957590
H           30.68289756052825       -0.57060913956418       19.55623996632237
H           30.20255034791951        0.56560401846914       18.27655910127303
H           29.50269637111561        0.69464872323455       19.89694250769012
H           28.41086237046031       -1.54562766542822       19.56907180739043
H           30.13360673873794       -3.37623205506818       17.04574585057494
H           31.04138741634149       -2.27559735036315       18.10578564335105
H           29.77775223898245       -3.33606135792379       18.79755136742807
H           27.15857136273884        2.28147590972765       16.07189355989604
H           24.75703353818639        2.04410439266758       16.75392309123083
H           24.19723582634805        0.30903019595267       18.46070079193706
H           27.01815964893352       -2.67666124316203       17.64263564212413
H           26.79705783157839       -4.26639904181542       18.39402919240887
H           25.27453732171665       -4.01992250344350       16.45501909126022
H           24.32511664271026       -4.10087221669409       17.94545576884357
H           24.59079696344626       -2.54710280857767       17.14829484186544
H           24.87321996044295        0.96710018914947       20.73674717242461
H           23.95319869183297        0.14067903809263       22.00288000636051
H           26.26499567426677        2.54609332632633       23.70127463150805
H           25.69298362873036        2.81198081996737       22.05532933479845
H           24.57366882189330        2.23958285570894       23.29539427092057
H           27.40740164273421        1.21853017806142       21.07535344807599
H           28.07359035596819        1.10485381898653       22.70819723623036
H           27.65896024497903       -0.36132265750257       21.81715374750189
H           26.61329277012650        0.24882130931677       24.59007390684985
H           26.13571269096820       -1.16797855825329       23.64021630353488
H           22.28257568884609       -0.56562951056723       25.22975862121513
H           23.36380166798322       -1.48283910528533       27.78969739903014
H           21.50248954637311       -4.04743293683673       27.81276359022354
H           18.89246253721304       -4.23450274651371       26.46799285151942
H           17.12822673603731       -4.93919795166998       28.25357439674112
H           17.63541468552587       -6.24115634677819       30.14450720082095
H           18.26558976989228       -8.54362111394350       30.20046645551685
H           18.30003437986807       -8.68423410566147       28.44947457083612
H           19.50025552104075       -7.68132576600478       29.29818222044302
H           15.95221929599732       -7.85376031198049       28.16596815833312
H           15.81222003701937       -7.89705216586166       29.92344793803854
H           15.39431519687664       -6.42699193187242       29.03568403768369
H           14.79855347945843       -4.57774251876604       24.47035453966166
H           16.36216054596918       -4.00745519853955       23.87836016412416
H           16.16371834671035       -5.43828306324435       21.86041256105884
H           14.71174209378123       -4.40918529960322       22.00471739636220
H            8.68577502420744       -7.24029839978516       25.02756107455494
H            9.62149255860936       -8.44809127038148       25.93026456731415
H           10.44043078210294       -7.28110077085400       24.86119696828674
H            8.42703176558668      -10.42513865929369       24.76574060996378
H            7.41855465208727       -9.05141183375315       24.28599451455083
H            8.03547043815088      -10.14041760909732       23.04955466468388
H           11.39683203613572      -10.50580653780973       21.70568901212050
H            9.93361837053048      -11.18759601401228       22.41760546861131
H            9.84357374743802       -9.71569292721883       21.42554712962374
H           11.71423591120986       -9.60358201599431       25.30282800568610
H           10.65840384063623      -10.96681689443736       24.90047824034021
H           12.20298768926082      -10.76761306447264       24.06748723604489
H           14.42872183556084       -8.42347054970368       22.96330596755381
H           15.99078559255087       -7.75374177221788       22.42196594171304
H           16.06949926330162       -8.16592857116884       24.85275327780654
H           14.62100331826150       -7.16922077418374       25.09888164850395
H           18.12165617763833       -8.11516318834258       25.95224515117474
H           19.08132996531053       -6.77589083854433       25.31135735560357
H           19.35817154060556       -7.33017129385357       26.95581364168678
H           20.63458775248549       -3.47699668396208       24.93650980389058
H           22.24507170272143       -3.09157540160819       25.57458903151067
H           20.96227207620866       -5.85660592324939       25.40508357650667
H           21.92871341041528       -4.83364298777478       23.26770197762067
H           22.71391238528300       -6.34456997418488       23.80104007522893
H           24.89879437058978       -6.21283107156226       24.86567770520782
H           25.58302539235774       -4.59377745228579       25.19764462234413
H           23.86941040412753       -4.08952260060833       26.81912400296151
H           24.49369023488987       -5.71122206187942       27.22955498956981
H           20.10025209481164        0.01533844683354       28.57104914062656
H           21.79991494425955        0.10799283586417       29.09455025333713
H           21.30714299458591        2.08940174020579       27.73473210596939
H           20.66669159098589        1.08591051301649       26.42730104153750
H           23.55261343572350        1.12236428889690       27.44570354335611
H           22.99134641760784        1.70843108294175       25.87077679469645
H           25.86789138409469       -5.44077203855920       20.13562993820793
H           24.89821112666096       -6.16462348595517       22.27411739981717
H           23.98460492202918       -2.14237871603616       23.34925617197297
