151
 energy: -221.323298243998 gnorm: 0.004057520802 xtb: 6.7.1 (edcfbbe)
C           30.16718016891574       -0.53854692617613       19.75560760727216
N           28.67542083156760        0.64914354106456       17.67556616625440
O           29.32233202500639       -2.18199379101586       18.12834818756787
C           28.95632769932638       -1.24079172462795       19.13248038253418
N           25.66540212035291       -2.42651829926868       19.10181753937522
O           24.65312792342361       -0.05601046952518       24.34268636772159
C           30.20237896120565       -3.19372488272864       18.57051624356195
N           22.58866024727422       -1.38901690069761       26.90909422671221
O           14.96163571944896       -8.09729416100697       21.39582236007934
C           28.05722818066639       -0.22265616057887       18.46054409224951
N           21.62390589111525       -0.98349423575104       27.83782563030995
O           16.14504422706785       -5.58126604640413       26.97128911187475
C           27.97470313971841        1.58710097921301       17.06465880534212
N           19.23855062885921       -3.68589343410304       27.50188673162904
O           20.67351935075983       -5.13107059229553       28.47186053734534
C           26.60261992682432        1.72191691435967       17.21192913748379
N           18.06118088684159       -6.60971088159707       27.56308953487911
O           20.10045229477929       -4.58097030727643       24.96901226799072
C           25.94895968888072        0.81498138975891       18.02514887924580
N           15.17551442350756       -8.66039210293011       23.58148700533995
O           19.61376585606336       -1.32957731192019       28.78805537087889
C           26.67174416251663       -0.19212258699004       18.66688157036199
N            9.82934218440832       -7.68588825037877       21.57012474464393
O           25.07647203623484       -1.66260913168333       25.84174783806468
C           25.91930057580062       -1.13500124288266       19.50758234196568
N           22.00025375478283       -3.90306599938491       22.97928362857884
C           26.13686795386498       -3.03885512730541       17.88283101144906
C           26.88808179998252       -4.34558714995229       18.13045892852266
C           25.23588328892578       -0.85686932818210       20.67177607059329
C           25.14845218806232        0.45205065719528       21.39254571680388
C           26.14721697489016        0.66555923604175       22.55094950419927
C           25.98508297160831        2.09131835044825       23.08464183487214
C           27.57836429154471        0.46615189789276       22.05557262750351
C           25.90054791729666       -0.33649876272131       23.68361011461369
C           24.37707776875163       -0.76817319812092       25.41472366957120
C           23.12294411741551       -0.28303363487919       26.12372113956861
C           20.45355171870963       -1.63263345219462       27.94837090961281
C           20.23736401899800       -2.79029989871590       26.96894033887221
C           19.52855227021347       -4.78031752972961       28.20548266334567
C           18.29590986165378       -5.60478895514005       28.59812105259799
C           18.44170806816977       -6.23281375461941       29.99403925917812
C           17.24928542774318       -7.13605516718129       30.30019910124586
C           18.53563177571677       -5.11219826520394       31.02781079562758
C           16.91763946170548       -6.53796240597716       26.87368683670762
C           16.52926597734709       -7.67521335404293       25.91589657668713
C           17.04543932300409       -7.39241198262788       24.50158758847507
C           16.61374371357963       -8.52158339726742       23.56514124881764
C           14.45432962819872       -8.41166979131357       22.47524124440733
C           13.02661745817986       -8.55579568326948       22.59520399663769
C           11.82981813726042       -8.60715647021023       22.46563271611627
C           10.37670258769672       -8.73868273162941       22.43818801411093
C           10.37382829705700       -6.36507106940439       21.80617844241100
C            8.38295964888130       -7.63450470972147       21.51571999658296
C           10.08435947912830      -10.11754172630107       21.81789446613096
C            9.86445972421758       -8.69949484608088       23.89290643420862
C           14.61692014759163       -8.93673844671175       24.88366813066547
C           15.00560336180069       -7.83957281005880       25.87847907182173
C           19.10553045303316       -7.59799402733976       27.38580817207553
C           19.79067411901051       -2.28050890510145       25.59439197338366
C           20.17860827595236       -3.25367480616620       24.47045637381774
C           21.58196543062473       -2.91095721732978       23.94352307220477
C           21.99320493586933       -5.21690777177279       23.59001649482243
C           20.56229677122246       -5.52436948960344       24.02656626640063
C           21.98153099372997        0.10516170457511       28.73430329257629
C           22.38294402040061        1.32060940849946       27.90404638767058
C           23.53584807990569        0.93278434126490       26.98146197294883
C           24.51489999257322       -2.04162772901718       21.00366905237658
C           24.78599041934317       -2.98720667017013       19.98842461347679
C           24.12305886824150       -4.20966924489786       19.97651906129330
C           23.23206535774845       -4.48248156695212       20.98642827009089
C           22.98080151713600       -3.57599404710256       22.03734486904296
C           23.62877465441008       -2.35165137082768       22.03656978559823
F           17.05294416918171       -8.89208890571567       26.36468010067112
H           30.63902155988249       -1.16638389295039       20.50684692132882
H           30.88025262136403       -0.30127552285491       18.97090445609749
H           29.85130352091477        0.38801444123940       20.22400908207639
H           28.38363213004154       -1.76823672127560       19.91493908063511
H           31.20117623491522       -2.80080445743011       18.77510653486153
H           29.81852184432138       -3.68346464541570       19.47277829025326
H           30.25732119370294       -3.91469350863174       17.75845960464448
H           28.54370017303457        2.25447051573284       16.43496040034922
H           26.06450028837977        2.50479013735109       16.70229529399523
H           24.87888157341844        0.86587889034493       18.16407805129239
H           25.28429244568845       -3.22090446529500       17.21812857776460
H           26.81120354363350       -2.33022981636442       17.39731010887611
H           27.45770793018642       -4.60499515196399       17.24335608074844
H           27.57628281074625       -4.22849855503515       18.96164584963924
H           26.21257118685654       -5.16326751511667       18.36065918281332
H           25.30708728046241        1.25858135272864       20.67406260086550
H           24.13876863931881        0.54982462157309       21.79677568007254
H           26.64577217799991        2.25654373808835       23.93225213966257
H           26.23444478664740        2.80996571765880       22.30863109498696
H           24.96095709043770        2.26406335493081       23.40340662330400
H           27.74114351969079       -0.56931088291968       21.77374303716685
H           27.75482996032667        1.09178125440033       21.18508713385262
H           28.29455428390505        0.73249892842823       22.82743713189243
H           26.69727283648696       -0.27521504505646       24.43233641333071
H           25.87170783533045       -1.36122641477514       23.30171681874621
H           22.37235448444399        0.02280488957279       25.38883628681429
H           23.36571558145395       -1.85787845734669       27.38108099615592
H           21.16943853489276       -3.35626847982565       26.88983327615091
H           18.27240271060035       -3.43146006429836       27.35987454905975
H           17.41447273421176       -4.95626023374688       28.59574720418389
H           19.36811352141949       -6.81301721273758       30.02282633397136
H           16.32162553989174       -6.57588668648015       30.19850227986827
H           17.20890372550555       -7.98670058268297       29.62478631459224
H           17.31814891051240       -7.50936328793022       31.31790289835590
H           19.37052747590046       -4.44948006649313       30.80216034280263
H           17.62187223633273       -4.52155201193831       31.03418268022401
H           18.68741569422063       -5.52911511268873       32.02100501333279
H           16.61197104628108       -6.44615937858892       24.17721762363660
H           18.12981595042848       -7.29416128461228       24.49285367812158
H           17.06366443097302       -9.46338232469987       23.89611878562568
H           16.92055677909853       -8.31234067586036       22.53895975526475
H           11.46034640972741       -6.40038500380637       21.75335039538270
H           10.01200427039910       -5.70301892692698       21.02052839476384
H           10.07879470342644       -5.93728998911277       22.77742486820441
H            7.93148470402649       -7.20273677350356       22.42159394081106
H            8.10307566244522       -7.00895165537383       20.66815434549575
H            7.97532954577096       -8.62713830505534       21.35185510128886
H           10.32487237671406      -10.09627125671201       20.75907538554788
H           10.69485204627616      -10.87463532920644       22.30339252821239
H            9.04006054424307      -10.38628209588485       21.94393402851588
H           10.07595279712679       -7.73452640019701       24.34802037522130
H            8.79300996909581       -8.87792213490855       23.91652484218162
H           10.35896714014579       -9.47214854071457       24.47525307163338
H           13.53180629706242       -9.00253731945645       24.80196996234378
H           15.01098067661673       -9.89595686257018       25.23645805898719
H           14.64745188178994       -8.10223552488460       26.87423230754098
H           14.56800150603432       -6.88242340089097       25.59759795687508
H           20.04927641588641       -7.15084523639715       27.69166754107280
H           18.91943652521114       -8.48665449311830       27.99079887057140
H           19.18668224607759       -7.89389243256000       26.34419394397452
H           18.70971536592524       -2.14287478436546       25.61769295550550
H           20.25207366847413       -1.31599148756815       25.39206769803053
H           19.47213386446935       -3.15880624989484       23.62884731125512
H           22.28272648138091       -2.84134020536480       24.79242019621522
H           21.51338067400723       -1.94186969147762       23.44994468138316
H           22.33555832771876       -5.97318377546217       22.88837646531087
H           22.64756467768017       -5.23392784997946       24.47794925050855
H           20.51352882052137       -6.49160712159654       24.52857073173062
H           19.90524656587094       -5.52336313009961       23.14448784072294
H           21.11257721426117        0.30526539579768       29.36062211118634
H           22.81625297657842       -0.21703782153036       29.36707260490448
H           22.68551820676405        2.13165825973208       28.56420106419389
H           21.52790914681710        1.65165168311069       27.31342246718924
H           24.41054064373360        0.66535170658628       27.57995307066102
H           23.80452055553521        1.75886195380743       26.32445724406318
H           24.26267016020355       -4.92335225438742       19.18200822875141
H           22.68269177297293       -5.40993403511333       20.95188150712622
H           23.44888101223190       -1.62386087844778       22.80957087555953
