151
 energy: -221.320761688360 gnorm: 0.008353106257 xtb: 6.7.1 (edcfbbe)
C           28.70911770675027       -2.24790764418936       17.89479364882313
N           28.90911978696234        0.54972800020605       17.91572865372406
O           26.94947873339552       -1.21627626984279       16.51528997551854
C           27.45761461883867       -1.36988237150881       17.83819270273448
N           24.55423358003811       -0.06769674351755       18.86391977308126
O           25.27443801716602       -2.04663701337637       24.13766712311963
C           26.42961030522904       -2.39686189706650       15.94444932463715
N           22.85758077085672       -3.26326556139013       26.46166636606048
O           16.82193351244637      -10.93179191321851       24.89452094491006
C           27.76475163569411        0.02965771329681       18.33600287593083
N           22.20594728556955       -2.76700429172065       27.59750938254328
O           15.58532564009393       -5.55123846328351       26.43984606876257
C           29.25177156699060        1.76414627172908       18.30488593390136
N           18.69091802246484       -3.41225369071732       26.91654859837709
O           19.13739300409193       -5.07458331622139       28.36829766294490
C           28.47019897942901        2.53881130986924       19.14799325956586
N           16.37671091557011       -5.55787638215604       28.54416700600803
O           19.75264466523067       -4.47454740078583       23.93124214093503
C           27.27422314548815        2.00538844151071       19.59146494748279
N           15.15139472560571      -10.10661303689906       26.19150670372273
O           20.30669863614329       -2.19219748614509       28.64055081167059
C           26.89264133788007        0.72792725168286       19.18283188478900
N           14.26131163377316       -8.15328457897328       21.08156800239037
O           24.78574058828802       -4.16278518946747       24.70423737476575
C           25.63575311369724        0.16090241516105       19.68758800441015
N           21.28585879178873       -2.57502516241787       22.53481575773488
C           24.42372524281123        0.41933283727151       17.51334781535938
C           23.97405801128210        1.87901328963749       17.49148270425529
C           25.34749462135028       -0.22073664507354       20.97841690274014
C           26.20812553737688       -0.06508356862499       22.19247299311560
C           27.02442220837592       -1.30281484554264       22.63015809425265
C           27.89873786808830       -0.91091859453319       23.82441704305584
C           27.90973935669145       -1.78615645695116       21.48389147192337
C           26.10125116481012       -2.45667870508376       23.03742828124360
C           24.66758990044815       -2.96731093304461       24.85863666602998
C           23.84010790509317       -2.31403861885781       25.95538369084145
C           20.86955196358237       -2.67839216516303       27.66628061660590
C           20.07060732130575       -3.26797456473584       26.49753497727962
C           18.34718964382749       -4.26770085987396       27.88894231793267
C           16.87039206788383       -4.20124319440441       28.29896393643527
C           16.61846370955578       -3.23437116726858       29.46936140423083
C           15.14075464846625       -3.26633696190302       29.86022035836982
C           17.01451020162466       -1.81309846225770       29.07462227335602
C           15.76708955896909       -6.14467488707115       27.50568076462839
C           15.27075981996706       -7.60395587241639       27.60247106879853
C           16.45827268925396       -8.57007756241575       27.54081316136356
C           15.98915415206553      -10.01846009620620       27.36586068503740
C           15.71023992588519      -10.41401455301710       25.00178790726218
C           14.91692667873316      -10.11594726061783       23.83764710662746
C           14.44796911755607       -9.79905545384424       22.77374623403172
C           13.77860671481430       -9.47238024073048       21.51703543164742
C           13.78772917164647       -7.72525296641997       19.78162221007906
C           14.08276123620941       -7.09749991859512       22.05544879264692
C           14.20651248111961      -10.55151763918229       20.50928946097017
C           12.25670011042909       -9.54876355135680       21.75425795153447
C           13.93521602859324       -9.33895507413557       26.32366112213588
C           14.27149426056418       -7.85637853370897       26.46763655365541
C           16.80790796922441       -6.22027390606065       29.75916485576732
C           20.16229515699797       -2.41892847116107       25.23173541800579
C           19.46694333366974       -3.08752743115768       24.02902251506785
C           19.86607862251862       -2.36895950107584       22.72763598698466
C           21.56069468843495       -3.99463071681264       22.36266513686119
C           21.10618018961368       -4.74958587876489       23.60867726855666
C           23.05009065969904       -2.33120730163476       28.70130558059461
C           24.00670679480167       -1.24808403563772       28.21105146859740
C           24.81141622909731       -1.79812406325319       27.03768903948946
C           24.01617952394091       -0.73137112630459       20.94867254803007
C           23.54725291875442       -0.60414598906423       19.61693703076141
C           22.26511464536988       -1.01698696719674       19.26753022139781
C           21.48806069906125       -1.62899632384174       20.22848221536551
C           21.95910550044928       -1.80337736581023       21.53800032109024
C           23.19360868965554       -1.31254519888946       21.90835261973440
F           14.58022055821571       -7.80225873778785       28.80939872031953
H           29.13929714174049       -2.19779662257219       18.88984782514278
H           28.46470797295158       -3.28241058267660       17.67064257180563
H           29.43396447487119       -1.87712469881543       17.17718877165175
H           26.66320530852436       -1.81242659636068       18.46418984884613
H           25.71677104831247       -2.87694159680638       16.62474374058161
H           25.91769434718768       -2.08887737451385       15.03505835788072
H           27.22028422938063       -3.10765612509451       15.69129311024678
H           30.19830617545145        2.12168315652816       17.92387688711054
H           28.78869029951909        3.52479435176073       19.44357204455354
H           26.62251974334905        2.56795175775217       20.24308734771973
H           25.38436236870564        0.31661921071569       17.00445464232213
H           23.69251852537069       -0.20544018908515       16.99639630482375
H           23.02027426256637        1.99094701648823       18.00208036149881
H           24.71047539743541        2.50636078474356       17.98785828047900
H           23.86684944707012        2.21632219855035       16.46520520650997
H           26.92003831835224        0.74183387950729       22.01197914547138
H           25.56606830828594        0.22370059203547       23.02668445013087
H           27.28510238103921       -0.53129358670046       24.63691560426998
H           28.45690301740723       -1.77203345116441       24.18512338946658
H           28.60739709134051       -0.13972481474358       23.53490769991280
H           28.54110342287348       -0.97355002634826       21.13516892955671
H           28.54699747744343       -2.60456360356192       21.80942762661500
H           27.29948819328629       -2.13010859264153       20.65456613898271
H           26.67551870926350       -3.33540503437875       23.34256353770251
H           25.44748173241712       -2.74112794859040       22.20759402577683
H           23.29850353383003       -1.46121183669677       25.53204388394931
H           23.31349247589413       -4.15364717756449       26.66679199724980
H           20.46076277658252       -4.27377909814612       26.30924586458826
H           18.03966712730476       -2.70022976273235       26.62657340631484
H           16.30003722137679       -3.84444483501383       27.43473243085399
H           17.23991222117564       -3.52716186112721       30.31989543738227
H           14.97128777417187       -2.60610644447527       30.70776704447904
H           14.53069053768928       -2.92350714050314       29.02761753125581
H           14.81234583483579       -4.26681896542368       30.12924883482735
H           18.08614115849186       -1.74615638699994       28.88785657101456
H           16.46430163452557       -1.49498259973522       28.18820693923747
H           16.77365850394604       -1.13408000669163       29.88935159753454
H           17.07520415837204       -8.28198004024068       26.68634832235884
H           17.06171052515917       -8.48949055828540       28.44290412024642
H           15.41084619497637      -10.33859801433171       28.23525308267379
H           16.84938012633171      -10.67590943515624       27.23024124634618
H           14.32303921041899       -6.81308515775573       19.51635163488462
H           14.01457906190272       -8.47910684094069       19.03426695047475
H           12.70927391132830       -7.50427476717433       19.75934072103860
H           14.43856395575476       -7.42901454656384       23.02978021907297
H           14.68292833767140       -6.24006644805025       21.74933201310093
H           13.03837450487175       -6.76506599757143       22.15419601090116
H           14.13043546154676      -11.53106319115959       20.97510019605053
H           13.56920065727087      -10.53791758969520       19.63000569686324
H           15.23985405867644      -10.38669151929690       20.21582258223595
H           11.72519267327849       -9.34475718262085       20.82840745029488
H           11.99200286519053      -10.54524617403184       22.09571295890188
H           11.94774825178281       -8.82963795997623       22.50922655650317
H           13.30494381831586       -9.49633644105514       25.44867744910102
H           13.41078932001018       -9.69174176620819       27.21565813702795
H           13.36816163520384       -7.27900353674660       26.66616536357689
H           14.71878626412221       -7.48176155875360       25.54666867237321
H           17.84105916905562       -6.55585887648521       29.64989447291756
H           16.77144182686903       -5.51290927531007       30.58296205528740
H           16.16071780010862       -7.05292620620052       30.00497602603836
H           19.70642303234257       -1.44513883603586       25.40725028789274
H           21.20921426190132       -2.28006608154741       24.97325220159939
H           18.37972792591295       -3.06085068690947       24.15064602809856
H           19.67082082092019       -1.30095031506867       22.81265836665757
H           19.25815397055670       -2.78316058312599       21.90577067707692
H           21.03928057757203       -4.39634723310686       21.47465116922215
H           22.63492986866242       -4.13650347792791       22.23265211124933
H           21.76606021770624       -4.49614766045228       24.44520142364870
H           21.14347754824300       -5.82565570776275       23.43605474204857
H           22.38901194786618       -1.96760590413010       29.48705475546780
H           23.61138287447563       -3.19638052236972       29.07184583392223
H           24.66911350365446       -0.94719621242525       29.02153657544661
H           23.43066805794913       -0.37911574215947       27.89024315184287
H           25.45215137981506       -2.61593392746510       27.37293078996486
H           25.43980271592098       -1.02312771964765       26.60527807332961
H           21.88918107900013       -0.89055986822917       18.26276607725218
H           20.50562586939795       -1.99331528578713       19.96623275328341
H           23.50766014852659       -1.41150489107472       22.93095978341927
