151
 energy: -221.336259415629 gnorm: 0.003991042653 xtb: 6.7.1 (edcfbbe)
C           27.48592242455746       -1.51921873551259       17.78854292053017
N           25.42985580932038        0.01848686016203       16.68256166534195
O           25.74814641061309       -2.99471363152417       16.88289397265249
C           26.03728497447093       -1.99872146186251       17.86303928542243
N           23.03583546059303       -2.95701739941528       19.05328474774393
O           24.12740959666121       -0.92368955459509       24.36351190834160
C           26.25521215504062       -4.27545177130724       17.18228810643067
N           22.94852691159167       -2.09179879117804       27.50155950777816
O           19.61392713690294       -7.88019984694065       22.80440303663285
C           25.07404220329046       -0.85313725522852       17.61443226581058
N           22.15823443217010       -1.59642802277679       28.54373210086365
O           16.84317099570742       -5.04870539421542       26.80403161875244
C           24.64030918642398        1.04376257211966       16.41670536042195
N           19.14083049958006       -3.67867507277272       28.50397337150052
O           19.70108913369178       -5.47099115821736       29.76329465468809
C           23.44614818769164        1.27366595635083       17.08156345318404
N           17.13071059532412       -6.29687444569765       28.64233383739247
O           20.31043447191078       -5.63109621521451       26.41708615152462
C           23.06531846901746        0.36866836211791       18.05530630317837
N           17.62323570697616       -8.33370381788469       23.79903415533920
O           20.23409894961260       -1.59675885374641       29.69746966919679
C           23.87661919355866       -0.73051825413138       18.33372123779652
N           17.60119141602953       -4.63835643857592       19.29324650081651
O           25.06181487185912       -2.44015254226898       25.72573628445939
C           23.44135658002688       -1.67793444863566       19.36682684521885
N           21.48050603419419       -4.60032940191154       24.09353832768501
C           22.81622847616084       -3.47802104030441       17.72691777407195
C           21.38292855115231       -3.23349996138456       17.25996162005864
C           23.29999562044445       -1.44838538599584       20.71717086283540
C           23.62220607571616       -0.20255922434476       21.47832240469183
C           24.99009551744495       -0.19033074527710       22.20082542230124
C           25.20521636832649        1.19924205632620       22.80671558490547
C           26.11569280753830       -0.49864827889282       21.21408968725921
C           25.05249501412830       -1.24559631208822       23.31309410930623
C           24.24426543076973       -1.57426593648407       25.50400650853652
C           23.27244481057108       -1.03860545877733       26.54271387363018
C           20.93862713328063       -2.08694578924596       28.82074576200645
C           20.47177165516928       -3.33016416907079       28.05432758218037
C           18.85390348967349       -4.74509076211082       29.25429175869632
C           17.34961581052664       -5.04390604411279       29.37714091670153
C           16.87331444005734       -5.04662345801364       30.83360226285734
C           15.35889503283642       -5.23053078747289       30.90525584468630
C           17.26546548457821       -3.71300008432693       31.47107023788364
C           16.92207604371651       -6.16442474751640       27.33053152218303
C           16.81387930866298       -7.39462533902159       26.40505510928298
C           18.22181227771278       -7.93067929068494       26.12108135475198
C           18.23823376934423       -8.92879625584230       24.96186689200946
C           18.38601028151995       -7.76308333313371       22.84728576243124
C           17.68179775430981       -7.02214581790862       21.83541441020233
C           17.27590203848477       -6.32005253861280       20.94422413059116
C           16.61075025705572       -5.52720927837629       19.91561889803587
C           18.41197067168492       -3.89547650466376       20.23444504058666
C           17.06838789839688       -3.75657922240709       18.27410210496712
C           16.07987731398490       -6.52697269387034       18.87163069822993
C           15.42644137309292       -4.79843746159202       20.58590953709055
C           16.22910112754849       -8.02609806334364       24.00931810960217
C           16.09105934420121       -6.98102566668359       25.11710895580160
C           17.35901562189087       -7.52995607216932       29.36390510546982
C           20.46009049054923       -3.17774844273854       26.52936569661693
C           19.83328534108978       -4.41216451718955       25.86109714055425
C           20.07183719651346       -4.38112245116099       24.34908966335087
C           21.87391651462059       -5.91156483562950       24.57515796547438
C           21.65985712327549       -5.91931057403032       26.08659699097446
C           22.70753893033223       -0.47249119958368       29.29031293586898
C           23.01194448103703        0.67903532546864       28.33493075152485
C           23.92785092529752        0.18199167674361       27.21848044868233
C           22.75647164984754       -2.64563439761976       21.26786585612007
C           22.60833839328894       -3.56469275377629       20.20025053433741
C           22.10637571492584       -4.84386266330274       20.41384513404907
C           21.75071832445279       -5.19628022345641       21.69707104760813
C           21.86472966654265       -4.28505598077828       22.75729204332533
C           22.35046111877046       -3.01157805543975       22.54827209923255
F           16.04680888976154       -8.40217683549122       27.01178502383222
H           28.16726248106268       -2.33177470780145       18.01875998480827
H           27.68297063679001       -1.15120145375281       16.78697665975646
H           27.64083095640248       -0.71697017527592       18.50084218808895
H           25.83111712996606       -2.42478043092302       18.85802489715672
H           25.82200001083968       -4.94771561802182       16.44506030385999
H           27.34554935825767       -4.30980010807567       17.10684091940362
H           25.95389576596957       -4.58876766982006       18.18893390130183
H           24.99120948819537        1.70882224685577       15.63984951707540
H           22.83471255738983        2.12819898785565       16.84188885277256
H           22.13976241411378        0.49401666274385       18.59852867988281
H           23.52065224561844       -3.00579027414710       17.04036509666166
H           23.02141963795716       -4.55089670038496       17.74644760909479
H           20.67936989671503       -3.68513004934573       17.95559896907027
H           21.18181370412420       -2.16657238437492       17.19746979450883
H           21.23615881997005       -3.67544033860417       16.27931857974096
H           23.61164969468668        0.64386509800174       20.78900541172066
H           22.84535902992710       -0.04581047164216       22.22899934042693
H           25.25277949944335        1.94657721809049       22.01955753730530
H           24.38852671672710        1.45027544792937       23.47752214625293
H           26.13681906846774        1.22926498539578       23.36671097131949
H           27.08582092864727       -0.34842100120128       21.68030437095025
H           26.05261406046844       -1.53010969399368       20.87943590316798
H           26.04101460155451        0.15143032335738       20.34639825628161
H           26.05760289239211       -1.28813756361464       23.74547923441910
H           24.80660693218509       -2.23866983116081       22.92595642604659
H           22.34822438663826       -0.73016685218268       26.04566714943281
H           23.81572511354441       -2.48843517341323       27.86542725996554
H           21.12257059293263       -4.16222545340552       28.34834910635648
H           18.38678895894243       -3.11570529588299       28.13996686933992
H           16.78999916754864       -4.27527986397902       28.83554561283745
H           17.37581593791970       -5.84715690802991       31.38046863725581
H           15.03478286323436       -5.22347912339024       31.94193115538586
H           14.86025481752602       -4.41724241008875       30.38288427933529
H           15.04525849562250       -6.16618307385234       30.45189981300846
H           18.34132804607728       -3.55800066226399       31.42227317144611
H           16.78178186801316       -2.88537517451876       30.95762541830389
H           16.96271283757961       -3.69714158693391       32.51416543877604
H           18.86023571659474       -7.07877951419579       25.88374139909904
H           18.63587421789465       -8.40637860762529       27.00862502435150
H           17.68248020811789       -9.83221679770267       25.22629675715069
H           19.26849430848516       -9.19051786329260       24.71442303903799
H           18.86973496924933       -4.57445097477819       20.95316952901987
H           19.21158310576474       -3.39864872007592       19.68600607871748
H           17.85013164699588       -3.12486985155827       20.78504301536508
H           16.45484515467108       -4.31674407927119       17.57595459937925
H           16.47913210897079       -2.92480339516105       18.68764173587618
H           17.90940667440065       -3.33432593163084       17.72446601530456
H           16.90537604183943       -6.90365235344914       18.27520131556399
H           15.60036617073288       -7.36207005803271       19.37583697740642
H           15.34897899207655       -6.05577072212303       18.22152667589033
H           14.86647106526094       -4.23665992644105       19.84349647989263
H           14.76286102769172       -5.52521292079054       21.04616268406847
H           15.78080650512228       -4.11905310133461       21.35759982862758
H           15.79417504285187       -7.64648827559778       23.08458935439220
H           15.71783507168007       -8.94804591784012       24.30004492085082
H           15.03849544281626       -6.81689745918079       25.34892467997389
H           16.52125053098957       -6.03384491286501       24.78938472472534
H           18.23637203323804       -7.39876737196876       29.99607649529525
H           16.49215289489696       -7.77379768096219       29.97919233686705
H           17.53978783553211       -8.35777415311869       28.69071614933989
H           19.87177816417828       -2.30382438551426       26.25086520572656
H           21.47727514869332       -3.06391924098996       26.16384881401218
H           18.75593053290935       -4.43611158225154       26.05590790724804
H           19.78227445315946       -3.40927858871725       23.94702402434867
H           19.44892231903557       -5.15726010486296       23.86505924294739
H           21.28508158027665       -6.72426997309296       24.11716188367588
H           22.93042328385466       -6.06565502211532       24.35104801595165
H           22.33156430147289       -5.19028841051921       26.55299238976224
H           21.84954907798889       -6.90855465111086       26.50474881797731
H           21.97101084485180       -0.18948669969290       30.04136986662539
H           23.62408380284477       -0.80531341301787       29.78862052879193
H           23.48905221103090        1.48977443387553       28.88324015165666
H           22.07872494137075        1.04912840903150       27.90870506142730
H           24.89334018143881       -0.11891105423217       27.63284288805568
H           24.09637184857692        0.96308664590456       26.47850048264711
H           21.98543261913719       -5.54925098771584       19.60643196329245
H           21.35101674829247       -6.18192796757147       21.88763109121414
H           22.39777919456812       -2.32320838032758       23.37628592187304
