151
 energy: -221.324744220783 gnorm: 0.007279133622 xtb: 6.7.1 (edcfbbe)
C           28.15286155683958       -1.70826437043460       18.01148159160988
N           26.60267843135617        0.48946646306105       17.08986113526818
O           26.20029493973406       -2.40208722141794       16.68826295586921
C           26.63015207146850       -1.78059553998414       17.89843496614144
N           23.62283479485167       -2.16692616547616       19.08962767330678
O           24.92474218331087       -0.88533170355371       24.54579570721989
C           26.38215014774755       -3.79957597947358       16.64455722251146
N           23.24963845748132       -2.12940831972311       27.43520398259331
O           17.87508791739680       -8.77153921675895       22.43769017270970
C           26.01895797937274       -0.39255803231469       17.88630954662018
N           22.35901388813980       -1.63706420458316       28.39388569504595
O           16.83556394569958       -4.89268522950335       26.60212098863247
C           26.11935728367126        1.71656903770531       17.01567342808073
N           19.34287060297472       -3.69859161663021       28.14757038175500
O           19.69406060931663       -5.23543562569067       29.76865774833914
C           25.01893545034662        2.14294305483330       17.74319062817294
N           17.04372956766111       -5.95791418455368       28.57226854780077
O           21.52385842630065       -5.74515156341226       26.27939430224886
C           24.40168795228114        1.22899423677868       18.57816636338882
N           16.26003860456960       -8.61960263412542       24.02097287448779
O           20.35787076880886       -1.65632340433462       29.39681725203889
C           24.89237332538329       -0.07342560839990       18.65954813813244
N           13.24589809964197       -7.73156390190356       19.52094920094416
O           25.48866482378140       -2.57678483956803       25.90185351414094
C           24.24764670310162       -1.03229328644905       19.56159327614066
N           22.14235994008180       -4.37782534277972       23.92462678289173
C           23.23072810921984       -2.40281186293280       17.72192076429825
C           21.83068305718798       -1.85176244923609       17.45463979747365
C           24.18169332613825       -0.98343159731247       20.93648450549014
C           24.69978328950653        0.10577156541423       21.82194409204417
C           26.05194072990534       -0.16538967751135       22.52082002020051
C           26.51734697786367        1.12685719989327       23.19891456350837
C           27.09611409429386       -0.61121045219371       21.49762900879579
C           25.91602563974521       -1.26559570040768       23.57856882294443
C           24.79948966788088       -1.61909442099881       25.63283334644440
C           23.70565141891249       -1.07275100519856       26.53602901300805
C           21.12817855450565       -2.14257117039410       28.57516789628037
C           20.72105238453229       -3.41198865285997       27.81162667865915
C           18.93770602791912       -4.55323674675908       29.08511056759512
C           17.40806777649953       -4.67565550660809       29.17747505457285
C           16.91769112915394       -4.47313630850577       30.61574634133774
C           15.39701045261548       -4.57028658536817       30.69793956761586
C           17.37380077533081       -3.08834079890455       31.07906924367768
C           16.75446480011195       -5.92972767917373       27.26674265462381
C           16.31590253461152       -7.20829926312088       26.53234572054628
C           17.55292266980488       -7.90614078581804       25.95424593794311
C           17.13669888467365       -9.08416873839573       25.07154614879354
C           16.73147154128163       -8.45230847302952       22.77170202205191
C           15.81786243283347       -7.92266216606404       21.79276996546412
C           15.24239716166612       -7.57127215346799       20.79406970356017
C           14.56832293379675       -7.09904391500189       19.58488781101770
C           12.55963892836824       -7.61796298351933       18.24985424842127
C           12.36746895222486       -7.35133192452438       20.61033411535283
C           14.53789878352712       -5.55458476208800       19.62424364362328
C           15.45190310943857       -7.55532504736062       18.41062265776701
C           15.03066854785505       -8.05005831811341       24.51624169057313
C           15.32913421153371       -6.84642303737860       25.41531510709346
C           17.27039977861105       -7.14148002513125       29.37670726718363
C           20.82898279039410       -3.38258737737781       26.28941092279758
C           20.62674912501275       -4.79796470554695       25.72012185627955
C           20.77903506853694       -4.77470821968147       24.19397305648679
C           23.05881904536316       -5.39471891224483       24.40572101467552
C           22.88132810011079       -5.52294529032563       25.91802214495461
C           22.82785540641021       -0.51384048985204       29.19807156617503
C           23.22183617484087        0.64349570775342       28.28550764239921
C           24.26418265140999        0.15588554329959       27.28191061446039
C           23.47522040487608       -2.15405920217405       21.33945831732666
C           23.13541439524929       -2.86268059861861       20.15964461043896
C           22.43932672294135       -4.06613564018938       20.20705646524176
C           22.10629905560211       -4.57739644477411       21.44260865504556
C           22.43292532116264       -3.88665671263777       22.61833285439829
C           23.08690427403026       -2.67314961385422       22.57110028664287
F           15.65293134502028       -8.08160380265485       27.40167010829322
H           28.42423324756893       -1.15594264338779       18.90514102267522
H           28.57768755562261       -2.70647479221403       18.07588105580334
H           28.55156985803104       -1.19867245717618       17.13917192080817
H           26.22330113311342       -2.35032469237150       18.74972375973064
H           25.89317220558756       -4.28271803581780       17.50144965904860
H           25.91237717809602       -4.12890252647896       15.71933373090580
H           27.44182346613846       -4.07404262697499       16.63295188038477
H           26.63983786446195        2.37765820951399       16.33779408457377
H           24.65252051667821        3.15259593180752       17.65986813588441
H           23.53310350356748        1.50498235106442       19.15874147626890
H           23.95674121675585       -1.92988047004479       17.05803549507575
H           23.24880878128558       -3.48000135643372       17.54059457056781
H           21.81135513693622       -0.77753808213372       17.62223116209898
H           21.54338700930462       -2.05124772941018       16.42708397001113
H           21.10895282920832       -2.31975278651757       18.12088256911520
H           24.82465739191658        1.00634033344051       21.22000704942250
H           23.95619687942277        0.30878164075900       22.59459810887522
H           25.76140162579237        1.48667790263804       23.89172047961711
H           27.43816554261643        0.95451703757989       23.75020521117990
H           26.70354212831312        1.89591670917726       22.45535164322825
H           26.82076762862460       -1.56805743899926       21.06194846830295
H           27.16392124032571        0.12271631159305       20.69902975894195
H           28.07212126921435       -0.70944897962335       21.96408757271043
H           26.86457438179924       -1.43038564385405       24.09909441023138
H           25.60849740651588       -2.21104478310701       23.12199692426326
H           22.85216545501341       -0.76327810784084       25.92173277540821
H           24.05448606314634       -2.57017986350309       27.88072426661864
H           21.32650529176669       -4.23508211851385       28.21296604696973
H           18.64906616926511       -3.14720750146059       27.66274719227360
H           16.95211320373853       -3.90724038000806       28.54637681205575
H           17.37886107238103       -5.22413003974399       31.26170771349686
H           15.07519739793384       -4.40339164640290       31.72250903771486
H           14.94139847057557       -3.81084883396492       30.06631979205962
H           15.03684706111030       -5.54286223268128       30.37647782174633
H           17.09467017770884       -2.93205461587469       32.11743517952164
H           18.45243317453765       -2.97795159650300       30.99066858139190
H           16.90709036242340       -2.31259500699017       30.47521969031106
H           18.09656923797145       -7.17205565933234       25.35460662131331
H           18.21423807328670       -8.25048687717083       26.74905294786679
H           16.60202360098948       -9.82725049984474       25.66941110921801
H           18.01423707742093       -9.54212513220190       24.61237299333772
H           12.30528567473996       -6.58115511234513       17.98147957192267
H           13.15935035415071       -8.05504246986435       17.45727264032513
H           11.63307830185376       -8.18465238512428       18.32389395548509
H           11.56460661040275       -8.08481758912541       20.67699015259360
H           12.92315032500966       -7.35988875175646       21.54534246534575
H           11.91454468797578       -6.35758976734882       20.47049391909194
H           14.05427643817562       -5.17507427931880       18.72739887467206
H           14.00086225712669       -5.19773442543121       20.49770533398690
H           15.55367044095088       -5.17191951528719       19.66305747944872
H           16.49042061420688       -7.33015964376124       18.63903408140613
H           15.35643366515593       -8.62721202033401       18.26661241874434
H           15.17605951474439       -7.03562214937922       17.49838518588467
H           14.40899701179798       -7.74215480332973       23.67539576186953
H           14.50411737154196       -8.81595839621640       25.09338978286398
H           14.40357756772662       -6.48794084675170       25.86737743458034
H           15.76972525131002       -6.03436193720023       24.83782115138812
H           17.47090545271783       -8.00831097680603       28.75756937865077
H           18.14483709927521       -6.95955568299973       29.99935255163479
H           16.40549176905047       -7.35334128389290       30.00541230526248
H           20.05228670322499       -2.73622166434371       25.88185385375456
H           21.80138900243911       -3.01645101445408       25.97462170575904
H           19.63597413681680       -5.17236050915608       25.99748164516332
H           20.09471882104866       -4.04722898864082       23.75704212615472
H           20.53601743899603       -5.77697022250385       23.79529478371269
H           22.87066407660674       -6.37194623653353       23.92462210640263
H           24.08245244694182       -5.08635683547026       24.18837775629103
H           23.26078445014250       -4.61709346914509       26.40224195942082
H           23.41992347887519       -6.39125153383103       26.29834488897728
H           22.01809625084859       -0.24030306654202       29.87293698668288
H           23.69225428791975       -0.84632288855755       29.78322139738598
H           23.62491513155027        1.45783376445390       28.88517014911523
H           22.33789527214199        1.00415670680038       27.75793709745801
H           25.18158985263613       -0.12666175406447       27.80504486340095
H           24.50233306954073        0.93667862006408       26.56007360806561
H           22.17700516419890       -4.60036905694149       19.30686010431116
H           21.58334299699775       -5.52116984701675       21.51271911728962
H           23.27724109115722       -2.15503083920595       23.49440853484560
