151
 energy: -221.324331377587 gnorm: 0.009696709913 xtb: 6.7.1 (edcfbbe)
C           30.24966820948996       -0.34710295207592       18.76047555516759
N           28.59049106097603        1.60710866356103       17.75329531149870
O           28.45188547043329       -1.53410974353071       17.59278112229977
C           28.75239723071611       -0.63136981111016       18.65987368096054
N           25.45938722006435       -1.37623570189187       18.94533541243653
O           25.52668416344969       -0.52497895902467       24.64174264303929
C           28.62054167761524       -2.89384931600147       17.92457434736678
N           23.41582491773842       -2.10474811171889       27.04745668347926
O           14.41583355657523      -10.68699661487437       22.91833224177793
C           27.96851371279416        0.64575548356285       18.41748754377120
N           22.40825986869439       -1.68450393859244       27.92214223162370
O           16.15574820058579       -5.31108846156727       25.82679446627408
C           27.97034645550422        2.75348105490234       17.53259321827855
N           19.46707955498836       -3.66638764515236       27.04575686263230
O           19.89735195769730       -5.36215284603414       28.46454681473042
C           26.68824414054192        3.02089389611402       17.98448202089124
N           17.11773972545223       -6.11850404748822       27.69998757896855
O           21.47093818672710       -5.38927717498338       25.02747291919379
C           26.02552617587103        2.01961305191895       18.67242449875176
N           14.11477992147346       -9.43145888696821       24.78548429092134
O           20.24229154878887       -1.62199224978786       28.49006681716352
C           26.65604537989479        0.79680332328378       18.89080128693675
N            9.83231899538051       -9.71733213695029       20.81889899314792
O           25.85417726133474       -2.43581109807876       25.77093621475909
C           25.92188034124243       -0.25721774559360       19.60310818726755
N           22.81860768181980       -3.78858307462652       23.16348118174710
C           25.42291924651591       -1.55096548454107       17.51421817671200
C           24.11023832978430       -1.03128237698459       16.92922028559643
C           25.53183199292842       -0.27908752895795       20.92222413012777
C           25.79008749064397        0.75568925715990       21.97072477686514
C           26.95658999708866        0.46735875777876       22.94376338529391
C           27.14524422326590        1.68893049277418       23.84729641347060
C           28.24678381580204        0.19554142451361       22.17194271326201
C           26.66991038505526       -0.76605384834073       23.80919034661794
C           25.22895403661827       -1.41992716846332       25.56249485539205
C           24.03591315449358       -0.96096598240804       26.38339555368117
C           21.13869365718853       -2.10251602887422       27.80479868115887
C           20.84571291876037       -3.27080655797404       26.85259804342523
C           19.09494528170651       -4.64032863602190       27.88432966014401
C           17.57884949513477       -4.77940299705855       28.05804369831175
C           17.17280015487750       -4.42190488126446       29.50376846483794
C           15.65737813445927       -4.52107028816381       29.66864297018946
C           17.64149493607196       -3.01035948320353       29.84627975598876
C           16.31771134190540       -6.23116532349430       26.63404151028016
C           15.51786742206711       -7.52923049081768       26.42204651522256
C           16.26671087151611       -8.55376687830497       25.56533165640327
C           15.39190736107040       -9.79299926564246       25.35739405372023
C           13.72937122415720       -9.91061820643935       23.59004744680910
C           12.43236621856573       -9.48827693934485       23.13157909524875
C           11.36740293488560       -9.22569281677676       22.63100598410560
C           10.06650282064462       -8.92295387364164       22.03785595147349
C           10.89662150185998       -9.60425095580335       19.83739575419651
C            9.55279596082725      -11.12202207282816       21.05619268409992
C            8.97889882394396       -9.20078667318859       23.08822043663315
C           10.01419441106391       -7.42504982129818       21.69157155654777
C           13.36121780101907       -8.48036273430950       25.56922881116140
C           14.17341554911592       -7.19999441740997       25.76189956031246
C           17.54573677982247       -7.20456219928920       28.56002644241164
C           21.09612878789428       -2.97184820495202       25.37644267010467
C           20.86313274467593       -4.21775617896318       24.50208782216704
C           21.37952271143477       -3.95025902653440       23.08196724280869
C           23.43563649088456       -5.01878022128383       23.62053290106850
C           22.88865057384656       -5.34330301562435       25.00978004647992
C           22.78479878934757       -0.70955644790944       28.93798842386325
C           23.37684794113112        0.53055311545134       28.27522026153482
C           24.53678479212556        0.10611988154777       27.37927717263186
C           24.76985358711187       -1.47306715120927       21.08922129256650
C           24.74429722704091       -2.12850812284048       19.83171568021902
C           24.07773476590105       -3.33800100912448       19.66372657177956
C           23.43969682149884       -3.88682360451743       20.75418258112261
C           23.44030204401451       -3.23850359027468       21.99790035007315
C           24.08555002961773       -2.03296466066407       22.16478902165021
F           15.22488024962646       -8.09894879769887       27.66703148794187
H           30.79824997830694       -1.26520340272986       18.95030518807941
H           30.59212611190170        0.09225486976805       17.82861362765127
H           30.43421844206422        0.35095685540571       19.57232403705263
H           28.38977978398058       -1.08219069737307       19.59619239836358
H           29.66349779344436       -3.13404567011895       18.15214557155880
H           27.99737914556227       -3.16583564736208       18.78519134328322
H           28.30540160781504       -3.45769732723254       17.05055719026935
H           28.54102905390215        3.48359249893629       16.97714529420049
H           26.22135578445322        3.97437308480462       17.79918159004563
H           25.01913858759706        2.16904197200164       19.03637270924452
H           26.27035460219958       -1.02106329681273       17.07513720251889
H           25.53651726002424       -2.61610523206304       17.29337642140977
H           24.00143799479443        0.03296382833790       17.12758547878726
H           24.09858723427843       -1.18901297453103       15.85518266980039
H           23.26575254854050       -1.55629627987742       17.37341760739746
H           26.00482839694500        1.70526869568530       21.47637763294400
H           24.88247441754215        0.87545115801270       22.56450351928921
H           27.94339648592534        1.50734794158926       24.56698603441744
H           27.41224870996754        2.55935709255694       23.24642172742653
H           26.22498527403088        1.90625566979975       24.39080129994008
H           29.09654763774262        0.15467645663842       22.84776539445819
H           28.17874481013243       -0.75588572727020       21.65276462405228
H           28.42139965521879        0.97970401772610       21.43988306493412
H           27.52478565672319       -0.99499286347582       24.45254295807773
H           26.46681020200579       -1.64166671875248       23.18686516522351
H           23.29251050476720       -0.51173983570653       25.71668339035706
H           24.13100956553621       -2.63535291034243       27.54569183021739
H           21.45990718382445       -4.11898663909781       27.17635235328557
H           18.76402311903298       -3.04173812328602       26.67890507455809
H           17.07425934377940       -4.09671682618079       27.36752480866103
H           17.66721115774261       -5.12314465308958       30.18146193704408
H           15.16418568230542       -3.78784003205125       29.03388572128360
H           15.28850146894665       -5.50931517029589       29.40114064827115
H           15.38512540122830       -4.32320027581056       30.70254471214729
H           17.35393136949438       -2.76494902661571       30.86502200740956
H           18.72283345864260       -2.91897814427188       29.76420796309667
H           17.19288179192065       -2.27851646976378       29.17625176559823
H           16.49861141160221       -8.08392562621117       24.60935263007503
H           17.20224058801296       -8.85083089929565       26.03896139536752
H           15.21873438013056      -10.27766632003129       26.32449905671312
H           15.87803465768037      -10.50032564798026       24.68138950226002
H           10.55393404015502      -10.05866244905194       18.90930624476700
H           11.12529845280970       -8.56317068061059       19.63843289608205
H           11.82180275913893      -10.11110682766312       20.15168868407924
H            9.36857356148834      -11.59323538345550       20.09203410845565
H           10.38858129322517      -11.64928363451534       21.54253152160386
H            8.65736438700985      -11.23519514056257       21.66009594704788
H            9.10870736379439      -10.17790683870582       23.54775607542617
H            9.03666599408177       -8.45060337472345       23.87304242802933
H            8.00141032765322       -9.14466724893452       22.61575908843031
H            9.08645822619236       -7.22077009819112       21.16790138541442
H           10.05165256981370       -6.83737744438208       22.60315587097649
H           10.84857260146185       -7.12177860641645       21.06757115161608
H           12.41945818637708       -8.25994438506440       25.06162905857865
H           13.14873031611515       -8.92536540979440       26.55006495466198
H           13.62290481627126       -6.50348578215367       26.39384790856666
H           14.37157330889982       -6.71616985329512       24.80723489442477
H           16.89235111518259       -7.30554950931500       29.42689300046873
H           17.55875454909602       -8.14541230716059       28.02052087859317
H           18.55987750328950       -6.98436023883882       28.88846269661851
H           20.42025390441398       -2.18625898461855       25.04034749837635
H           22.12375551447200       -2.64577088469682       25.23739922252222
H           19.79706466994641       -4.46818773084160       24.47701351541974
H           20.94246919454066       -3.03114080483452       22.69010443239851
H           21.08635227928151       -4.79185235338464       22.42999485076144
H           23.23560122969240       -5.86107962395100       22.93593800933655
H           24.51496988764860       -4.86788789423598       23.69080684976444
H           23.25654717288656       -4.59445371188109       25.71938596934970
H           23.20977474624106       -6.33558008958973       25.32792670213799
H           21.88686837396344       -0.47307530879009       29.50813390028491
H           23.52227359849102       -1.17448596986873       29.60053877762952
H           23.72120821639345        1.22454973967903       29.04135094399475
H           22.60690379357802        1.02375753300364       27.67975979054304
H           25.33876586520351       -0.32279272334535       27.98610017335471
H           24.93556561352577        0.95627468599116       26.82800494450761
H           24.06295172289716       -3.84258671537064       18.71051162227909
H           22.92276686967829       -4.83009251717865       20.65163564507414
H           24.04087827052137       -1.55275506095108       23.12682279086206
