151
 energy: -221.334103877906 gnorm: 0.003779915993 xtb: 6.7.1 (edcfbbe)
C           27.56240023261467       -1.35230829171091       18.06390708333872
N           25.45791089547855       -0.07756862951217       16.67222388604517
O           26.08698408614055       -2.97762671980144       16.97184654618329
C           26.16859711284148       -1.97384359719351       17.98457500645959
N           23.20309347277635       -3.10209824519066       19.06925379754287
O           23.98917402067825       -0.88179716663185       24.36554827679548
C           26.61975208163435       -4.22746964221707       17.34938809780768
N           22.83987728384569       -2.13976451543831       27.48725670478390
O           19.85034074057966       -8.10652540143799       22.86532910611434
C           25.13261481480849       -0.91984479076732       17.64193676886399
N           22.04045090787207       -1.66031873977508       28.53066594696192
O           16.73628306753986       -5.10441590858746       26.62915435313240
C           24.60181579799682        0.86368994037031       16.31642798388584
N           18.98544445009609       -3.68739073941018       28.37755344760716
O           19.50260118207892       -5.35624153648917       29.80811585849460
C           23.36989553271784        1.03812603405912       16.92670675424960
N           17.04403455575922       -6.32270309652788       28.48705862311824
O           20.24585549943876       -5.69607348291070       26.37681935811732
C           23.02300329575746        0.16702645411069       17.94345299490396
N           17.77677031891379       -8.44181005771389       23.72639520292977
O           20.06423657761878       -1.60028663412946       29.59330333664627
C           23.90350687975959       -0.84859635781155       18.31300194580074
N           16.90468323195714       -3.89364397426286       20.75158820728273
O           24.93379540233980       -2.44664918020748       25.66461401507539
C           23.49030626800102       -1.78636307155241       19.36407199391215
N           21.48589416835777       -4.71810305145954       24.06487420822276
C           23.10311363737415       -3.66448861847003       17.74525650611320
C           21.71237805074541       -3.44697615229859       17.15238433283093
C           23.25197515274158       -1.53139838719479       20.69554427143526
C           23.43555856931616       -0.25033633917665       21.44388431112973
C           24.78101189639559       -0.10520508595811       22.19291678656761
C           24.85472604003948        1.29862941062017       22.79959447138124
C           25.94699648145734       -0.30460098664818       21.22585832166391
C           24.92064594986499       -1.15198654623124       23.30644614067540
C           24.11308001147484       -1.57411583753343       25.48084959464583
C           23.15312078801563       -1.06865873960447       26.54375437884620
C           20.79480871736115       -2.11264792290163       28.75182352644254
C           20.33757191970907       -3.35681380763410       27.97894464616444
C           18.67323381597501       -4.70271603198214       29.18842806026312
C           17.17516066172244       -5.05141876884993       29.21129699477913
C           16.58435551367579       -5.03753096477441       30.62456032847008
C           15.13413922759248       -5.51831348741911       30.60769272915132
C           16.65503847222340       -3.60264289082806       31.14893682097444
C           16.86381355568707       -6.20915659504181       27.16601425020738
C           16.80263883464839       -7.45805146067828       26.25443496150298
C           18.19439474256452       -8.07921493267185       26.09676470366910
C           18.26450047250107       -9.07150770438090       24.93109741429682
C           18.63754596058745       -7.87847113223519       22.85786164270919
C           18.06608438426743       -6.97783443378955       21.89114004306845
C           17.77757363989976       -6.09798742060608       21.12021431470036
C           17.35130550092974       -5.13787457945651       20.10778620180425
C           16.10172115244445       -4.07220264744231       21.94214350124255
C           16.27548979615368       -2.94657086797854       19.85314776275490
C           18.59205625925410       -4.84279770847500       19.24636858186114
C           16.26790092223104       -5.83816607210468       19.25898050441114
C           16.38203913165625       -8.08473772573328       23.82256822694691
C           16.19639646542122       -7.03208958191356       24.91221347133638
C           17.45110122974441       -7.53126173218676       29.17187148005546
C           20.38913593372637       -3.23898769009523       26.45215109986987
C           19.78701332319813       -4.48579261510872       25.78380978648046
C           20.07318369960617       -4.47728940437395       24.27980711928298
C           21.85610733679812       -6.02202664198235       24.58243180164727
C           21.60316510871502       -5.99165682666958       26.08802852155129
C           22.59105808991841       -0.55119149265161       29.29843034637548
C           22.90033708478199        0.61941361975789       28.36775857880885
C           23.80944977682889        0.14249432095547       27.23679702007986
C           22.77003053680705       -2.75240744827198       21.25268000658935
C           22.75190022486425       -3.70867035439765       20.20791072629395
C           22.33035520293108       -5.01415830593192       20.43511111860298
C           21.92559669620626       -5.35639668950563       21.70683066760960
C           21.91561285296595       -4.41214049283455       22.74423901086666
C           22.32410775883023       -3.11308524091586       22.52097241174373
F           15.93969971671782       -8.41465426016245       26.81836519605564
H           27.57335113302705       -0.57593857837897       18.82205723655746
H           28.30209778930851       -2.10495279904476       18.32211543825610
H           27.80807496181499       -0.91701639089174       17.10045816129742
H           25.90309664873078       -2.43438294090379       18.94903711067610
H           27.69209330027536       -4.16855387597225       17.55785832761144
H           26.10416967120884       -4.61878343952609       18.23535705576165
H           26.45256304787470       -4.89020034647754       16.50308990833472
H           24.92834036545259        1.50565785983266       15.50966304413875
H           22.70215788046902        1.82297944774610       16.61074838386515
H           22.07050817028465        0.25163462520467       18.44605748914182
H           23.85730050197335       -3.20525318399236       17.10329577103685
H           23.31524550088412       -4.73391411174549       17.81510161452116
H           21.65684745956545       -3.90472162177128       16.16951703221582
H           20.95615174960460       -3.89160298851139       17.79469475802001
H           21.50789120750232       -2.38333830559851       17.05467047795737
H           23.35829739672839        0.58527825200016       20.74597187033934
H           22.63171393845758       -0.16301798454328       22.17708678992931
H           23.98149446222298        1.49401347858133       23.41565296607995
H           25.74431997136642        1.39866234027338       23.41677471793401
H           24.89857229802087        2.04377243985717       22.00963441299453
H           25.97599941416260       -1.33266720885689       20.87789132082406
H           25.83163087888426        0.34929379421338       20.36511980136574
H           26.89226166066387       -0.07835296417485       21.71216603844696
H           25.93102555165087       -1.13006068349319       23.72879805165315
H           24.73411599591929       -2.16028530630887       22.92615874640467
H           22.22078657277754       -0.75524586089804       26.06444353903235
H           23.70821218026578       -2.53255591511693       27.85357252871690
H           20.96888442038464       -4.18826724979275       28.31581536747242
H           18.24720429281772       -3.18356493983652       27.90894885626630
H           16.62734810264758       -4.31758526685170       28.61259005004458
H           17.19201444428359       -5.66683302574336       31.28129758227231
H           14.71783659142878       -5.47632500882966       31.61043982938834
H           14.53963675418237       -4.87658923871571       29.96038878620237
H           15.05169396617164       -6.53748773544746       30.24048546409632
H           17.68033859686075       -3.23625322382886       31.13756060633185
H           16.04842928027226       -2.94223519526905       30.53308854824675
H           16.28352370235364       -3.55978285616837       32.16918576951979
H           18.90620014569013       -7.26730571533902       25.93689962295662
H           18.47324292303058       -8.59557740003168       27.01254102958864
H           17.64825341748939       -9.94943718270390       25.14021409864824
H           19.29869007042695       -9.37978926327077       24.76909150586648
H           16.64152552670918       -4.68465360508734       22.66162214647140
H           15.93221857695014       -3.09328401532671       22.38828496189235
H           15.12147308059409       -4.53414332907374       21.74749781676294
H           16.87902210771175       -2.81645675406900       18.96021473678255
H           15.25587679298867       -3.23807333318720       19.56155528869045
H           16.21827134924222       -1.98728825131876       20.36681414123596
H           19.04158483510083       -5.77877800176814       18.92373217024116
H           18.32645935670913       -4.26406830412352       18.36696066217424
H           19.31854901764880       -4.29062529483697       19.83804489834939
H           15.38549186687510       -6.04365640994022       19.86139247960838
H           15.98801195570117       -5.21211396854991       18.41640387973219
H           16.65375370568793       -6.78098959867165       18.88008825398447
H           16.03453370412996       -7.69513100014472       22.86555562927019
H           15.81955212972061       -8.98831879497339       24.07259259610127
H           15.13693972421101       -6.82338247745617       25.06345596006061
H           16.68490657256613       -6.10389839300584       24.61321719769537
H           17.17994246978949       -7.45152111262193       30.22073621647139
H           16.95088472982510       -8.40040221073609       28.75477242961269
H           18.53688403382577       -7.64883073686433       29.11684867919967
H           19.81640986740165       -2.36961338533912       26.13016709142417
H           21.42135160439097       -3.13478418864134       26.12757621060885
H           18.70376996146536       -4.50900094369701       25.94082783957282
H           19.80584424207894       -3.50797839101593       23.85784581580624
H           19.45510805289830       -5.25058045236994       23.78499070117120
H           21.27530920034856       -6.84187896860617       24.12830050056426
H           22.91729988584435       -6.18854924210766       24.39010857578375
H           22.26313918494518       -5.24851473956896       26.55047617347559
H           21.78611988890005       -6.96926948502032       26.53741011195794
H           21.85611669398356       -0.28147677694055       30.05588561741046
H           23.50690886478073       -0.89896472572321       29.78847124488861
H           23.38430091896418        1.41523925181031       28.93207467181672
H           21.96729477543823        1.00415251610331       27.95378188970452
H           24.77879017619814       -0.16327057502848       27.63904989657943
H           23.97088627736338        0.93664003342453       26.50884032966970
H           22.30902654125783       -5.74845901084649       19.64423559597134
H           21.58293388580809       -6.36178917363158       21.90333100791957
H           22.28448985067882       -2.40141890472384       23.33029967306945
