151
 energy: -221.320014665507 gnorm: 0.008501692384 xtb: 6.7.1 (edcfbbe)
C           29.81480304546791       -1.30230538742049       19.47298061807006
N           28.38074971941741        0.18935717128035       17.55149219307959
O           28.49713628941155       -2.76025379436946       18.00005640754987
C           28.42982871610125       -1.74308267544492       18.99934612546438
N           25.25642701592666       -2.50685547879253       19.19351423927132
O           24.64469479707870       -0.03907801544840       24.41690370592262
C           28.78670508492222       -4.05066132782837       18.48960537707995
N           22.52785907410819       -1.19086793660576       27.06515089493125
O           15.11803118929347       -6.83067002488146       21.12113644019991
C           27.68291195797852       -0.57927453029091       18.37507576835963
N           21.33038421698061       -0.77049312820806       27.65305868359750
O           16.11707243316898       -5.52180844877170       27.07299218721496
C           27.79225406907422        1.22248777638848       16.97776399761455
N           19.36747455687368       -3.84756975016141       27.62356014835472
O           20.46579017518071       -4.83988540210877       29.32156539448914
C           26.46946518165005        1.57016695045036       17.20925351161669
N           18.11455550337918       -6.46836655669450       27.52211872417739
O           21.79630793163525       -5.27975035865326       26.18351263840782
C           25.73035577685599        0.77017439279945       18.06106404174440
N           15.41618208083704       -7.84533556539916       23.12674419326889
O           19.17281447312662       -1.19543863941028       28.13178814293380
C           26.32904140029471       -0.34086754750132       18.65267242956396
N            9.94681095181163       -8.53379116438047       22.93209379178765
O           25.07968121884743       -1.45701171647599       26.09768631877038
C           25.54857820996496       -1.20595290855358       19.54309552914625
N           22.72737762201731       -4.04299003350985       23.85289373169349
C           25.37874575718045       -3.05383174617325       17.86484131412737
C           24.14740284251037       -2.72783824993614       17.02165847287039
C           25.04855180194473       -0.91727851401690       20.79205224178259
C           25.06051372857028        0.39477242339809       21.50962355832247
C           26.13977194391801        0.59222872936118       22.59832167341094
C           26.08055229773662        2.04733427315360       23.06940763893862
C           27.52541424499854        0.28555646254015       22.03379775259141
C           25.90934622349465       -0.33217534173098       23.80161509486451
C           24.35128293124410       -0.66365462896544       25.54283634295962
C           22.99602022900301       -0.22545167810297       26.07447372313624
C           20.25282458976285       -1.57256142306910       27.69077076689892
C           20.47125203428362       -3.00994074793762       27.21542556232178
C           19.47411447088520       -4.74769293297146       28.61163998774996
C           18.23936251055022       -5.64910665035588       28.72840688922124
C           18.16859118407778       -6.45214666877922       30.04469578359070
C           19.29201305139445       -7.46201275479318       30.27486869587953
C           16.81066893764248       -7.14589261066777       30.14342495129971
C           16.97524773692446       -6.37205685994438       26.82559251266447
C           16.70769496137671       -7.31920898967037       25.64216973730108
C           17.19749050331908       -6.68708496899075       24.33460369435014
C           16.83619365998255       -7.57891224747550       23.14615878351434
C           14.65787570963069       -7.42026041283961       22.10416613846249
C           13.24875802809599       -7.70630805761368       22.16838558653934
C           12.06317005332871       -7.85424785746809       22.01303176675250
C           10.63901711858667       -8.01796078154305       21.74424776993930
C            8.50395251269458       -8.58395615574150       22.80063601747278
C           10.32434125657370       -7.89064566302099       24.17346359224884
C           10.12375250776324       -6.64959669004529       21.24720848106372
C           10.54968412808039       -9.05406794406881       20.60790510825765
C           14.91627566167521       -8.48370112847282       24.31874252993331
C           15.20753430211833       -7.61899044559907       25.54745897505934
C           19.24868361269357       -7.29430363651273       27.15727193281165
C           20.67575250475095       -3.13402116667103       25.70348440091190
C           20.90820218083291       -4.60368943114662       25.30721642801566
C           21.43517876025130       -4.69075174759670       23.86823763407238
C           23.66616491164625       -4.75470509986726       24.70505280269986
C           23.11887754975156       -4.77061490381892       26.13052866720935
C           21.32250663783605        0.55402652129171       28.26029941483608
C           21.76949220526449        1.60257172545938       27.24785611432262
C           23.11767716004710        1.19545358718837       26.65606290906110
C           24.41420712029218       -2.11092108624194       21.24392895794484
C           24.54988694894633       -3.07616407590770       20.21543326723323
C           24.01814183566078       -4.35353948009464       20.35147647806421
C           23.39720615563738       -4.67610442689405       21.53889421420507
C           23.27829134978075       -3.73648200005178       22.57286579260162
C           23.75253289708331       -2.45316917724825       22.41830170767332
F           17.35225754592562       -8.54680349704438       25.82719356617525
H           29.71219149365090       -0.46450328781698       20.15795103391385
H           30.32592195698054       -2.11475100202590       19.98427333392731
H           30.39833221337831       -0.99063051803143       18.60828800006004
H           27.84771729646664       -2.12831906456632       19.85170078745501
H           28.73892239377587       -4.70776498378041       17.62537697775226
H           29.78590885831882       -4.10549562650433       18.93546078204237
H           28.04239462653126       -4.36253851477409       19.23518199852160
H           28.41755492422146        1.79754702529839       16.30779299950950
H           26.03523509323924        2.43277866172470       16.73121400358025
H           24.69106591103002        0.98257544241121       18.26455920241525
H           26.27433264166631       -2.64400266712004       17.39628628026739
H           25.50078587433756       -4.13431528978790       17.94868223046814
H           24.24353771703153       -3.17327908462589       16.03634286813350
H           23.24983190342775       -3.11501562277525       17.49832351220445
H           24.04376852521309       -1.65165567724027       16.90884530331351
H           25.19892762107300        1.18892442134373       20.77365194648200
H           24.08443850338911        0.53070449137610       21.98025372328912
H           25.08197860024609        2.28710517270002       23.42228448318651
H           26.78402418331421        2.21364509670393       23.88085713091015
H           26.33254554776792        2.71826071731411       22.25347022031510
H           28.29799930529495        0.54100542048767       22.75426717439234
H           27.61351569274213       -0.77003841838178       21.79409840560491
H           27.69202155233663        0.85943728046639       21.12600501612130
H           26.69714303517822       -0.19033546157878       24.54863919913108
H           25.91414838913849       -1.38242851129895       23.49580259715509
H           22.27745047324990       -0.21370903444891       25.24845782691157
H           23.25288333537006       -1.32565920620996       27.77113477416147
H           21.34726894816331       -3.39692420100672       27.74729447907077
H           18.48507919247681       -3.72014315758254       27.14680367318041
H           17.36283273059236       -4.98831494443204       28.71932714682125
H           18.23892444808795       -5.69509088089255       30.83402556010938
H           19.15873079293517       -8.34963321347605       29.66461998233603
H           20.25832877663159       -7.01546826121896       30.06354045429598
H           19.28241819705459       -7.76905619116420       31.31813148389183
H           16.73064123112068       -7.67559538126595       31.08806565448580
H           16.00078545865785       -6.42411140987184       30.07729367152319
H           16.69418701489523       -7.86664216106420       29.33664973611933
H           16.71591624412324       -5.71255545913303       24.23778335342047
H           18.27816480476697       -6.54142413391374       24.35656543709759
H           17.37370950813752       -8.52977506208369       23.22600039138412
H           17.09769913553355       -7.08997593628361       22.20674185525893
H            8.11326270663864       -9.19677833150552       23.61286304891341
H            8.03048129175160       -7.59292348135734       22.86017509367774
H            8.22905312676132       -9.05310490736792       21.86102864747780
H           11.39573271374232       -8.00863722819567       24.33476374613316
H           10.08298700100613       -6.81721101757822       24.20635678439830
H            9.79350246761239       -8.38230524068677       24.98515797139562
H           10.10762603954986       -5.92863206977074       22.06068275741292
H           10.78329505808609       -6.27323541104979       20.46994650337887
H            9.12276918346677       -6.74847802563557       20.83816327378889
H           11.26608306007332       -8.80313414356615       19.83039562256559
H           10.78209329014205      -10.04080452970971       20.99768368347875
H            9.55717386611981       -9.06631742528155       20.16899728318933
H           13.84337457353872       -8.65235400937509       24.21730754296258
H           15.41986742658693       -9.44982484176056       24.43419489395881
H           14.89116354140249       -8.14293546236531       26.44929871647394
H           14.67406645638359       -6.67052302530908       25.49574108896996
H           20.14983504516367       -6.85270262995164       27.57601250109878
H           19.13844869948626       -8.31147200000217       27.52989662677144
H           19.36763998187513       -7.34009675376823       26.07921470938366
H           19.79538557631026       -2.76478335001476       25.17817849123038
H           21.54359843364387       -2.55225127701512       25.40303545368693
H           19.97118652940862       -5.15966425407188       25.39771972600673
H           20.76699466687369       -4.16137389552460       23.18647317386307
H           21.48541835454161       -5.75388284693402       23.57437642246804
H           23.82804563132173       -5.78964477497158       24.35349065443772
H           24.62088803093568       -4.22442603371641       24.69770965744935
H           23.15878913294749       -3.75167822611002       26.53543197038672
H           23.70970516751296       -5.43224155922853       26.76609741945738
H           20.31109125668551        0.74032853697991       28.61706872345659
H           22.00630971442995        0.54139608759611       29.11573308516938
H           21.85127380026556        2.56824950359505       27.74507082840210
H           21.02676112909663        1.68313866271525       26.45460534538229
H           23.88233913730006        1.19771512248258       27.43456360314637
H           23.41932064514203        1.88543853844670       25.87163983666889
H           24.09912832406000       -5.08767564865586       19.56372805862505
H           22.99730467001690       -5.66890280970188       21.67862017106994
H           23.60312513143491       -1.74509535035988       23.21383352777659
