151
 energy: -221.324104541685 gnorm: 0.009538265112 xtb: 6.7.1 (edcfbbe)
C           30.77953883403537       -0.41838367692762       19.29300135372602
N           29.18929669334345        1.65239624942028       18.24455506462371
O           29.24779457264809       -1.27089139960011       17.56827675383996
C           29.33644102391359       -0.67805729577739       18.86321362370999
N           26.00176661910759       -1.45154790529469       19.08614313913007
O           25.62585665544929       -0.66847939986642       24.77849751605378
C           29.67093582334776       -2.61539442558712       17.50765584701872
N           22.91950502775652       -1.74707491102820       26.84385402475364
O           13.09992762415327       -9.40052974414916       21.63629418879045
C           28.55574665887034        0.61869187133845       18.78091041788850
N           21.76109926598573       -1.17179816447166       27.37509845468414
O           16.53919625207247       -5.41263668854868       24.45356805242075
C           28.56123070965237        2.80842157459318       18.12826023907190
N           19.08128740745337       -3.40992576045303       26.30822871739025
O           19.34897799236000       -5.03222854402257       27.85231574574148
C           27.25948281975981        3.01142752638025       18.55979069123377
N           16.90952909562539       -6.06800580963588       26.57267579729768
O           21.38427741459957       -5.25037684583203       24.85677463055004
C           26.59360262131383        1.94154995538538       19.12666015397506
N           14.31942680261138       -9.47944028027050       23.54785455420430
O           19.52078458430746       -1.13269224993048       27.54627515634836
C           27.23514670386712        0.70714474594245       19.23609764505505
N            9.57402132358656      -10.13296183713818       26.07991299971344
O           25.46926404427954       -2.44262212360152       26.14027528719166
C           26.48641271536754       -0.40438215508355       19.83692722909272
N           22.92355728391385       -3.88732719528965       22.97034761158617
C           26.09495026621209       -1.58132995500541       17.65380241490307
C           24.87314167889056       -0.98185970038015       16.95752475173558
C           26.05538825742167       -0.50631215745847       21.14021725861851
C           26.38235446982501        0.43370607289428       22.25574791228047
C           27.43045791104332       -0.07239498619815       23.27713751182547
C           27.87278387785743        1.10848724469331       24.14629009179595
C           28.64211410330192       -0.66181813616437       22.55614877164186
C           26.83728544980250       -1.15906483945977       24.18157134250535
C           25.03198139761862       -1.40430450468101       25.69522385029231
C           23.72905699027980       -0.75810247019747       26.14009359125631
C           20.53947872119402       -1.66195278625691       27.10666044695117
C           20.45568739828830       -2.95875593234241       26.29511671121766
C           18.63012685423923       -4.39371228659668       27.09203080418308
C           17.12928239979056       -4.66897490706260       26.93962473083531
C           16.36234986762928       -4.25845381796458       28.20950974920916
C           14.86377197809786       -4.48363162718698       28.01817777082358
C           16.63357606571996       -2.78427067354403       28.50855862554702
C           16.60317173541974       -6.31296474040782       25.29360781137431
C           16.20617854847308       -7.74083232774128       24.85560047241567
C           16.06567565759538       -7.79823693165860       23.33238778516271
C           15.56172908568213       -9.16916774222816       22.87883453005677
C           13.16012497509764       -9.49235357243139       22.86549867563917
C           11.95678872820159       -9.61121056176387       23.64596057757095
C           10.85319958888198       -9.66366549013597       24.12505940494850
C            9.50724534117449       -9.65595131971092       24.69351043332055
C            8.29114363649024      -10.31141309146758       26.73060300188676
C           10.46563463935636       -9.36500535373316       26.92650521659402
C            8.96869459686429       -8.21567964964198       24.53550786827246
C            8.66190780771226      -10.61455560428290       23.83832918761623
C           14.43399615126450       -9.52259555764218       24.98416614126629
C           14.89167445964313       -8.16194075986161       25.52078285100760
C           17.14818817373245       -7.04878917505949       27.61348775260707
C           20.92201477425562       -2.82566085968549       24.84319610199169
C           20.82821745759554       -4.17706138449626       24.11163713545837
C           21.50773772186511       -4.07542471225498       22.73763534403573
C           23.48426188630030       -5.04602355313173       23.63635710055105
C           22.79555677397894       -5.17761139707078       24.99315827587078
C           21.93484647546877       -0.00583343309261       28.23241075906396
C           22.71129218061413        1.07396955485940       27.48438748083219
C           24.03326207552066        0.48670979287651       26.99453397894691
C           25.22554665879688       -1.66414802142140       21.19293662285293
C           25.21425426488778       -2.22587492498276       19.89042313107491
C           24.46955390955319       -3.36423142425335       19.59902773566516
C           23.72045091772087       -3.93170577517919       20.60720185801791
C           23.69438965692492       -3.36750330710389       21.89102898935873
C           24.43527647615169       -2.24200838066336       22.18179664771572
F           17.21314323342413       -8.65602934925800       25.20516448720402
H           31.28013569823073        0.15865659963676       18.52170644904772
H           30.78635961868838        0.14875807414912       20.21875670069928
H           31.30783318094722       -1.35401543619499       19.45361796653717
H           28.84298276116316       -1.34671370486998       19.58702595047214
H           29.40713908202026       -2.96542217149432       16.51164167466500
H           30.75084516115986       -2.70709240061749       17.64886015840514
H           29.15314263108816       -3.22004946270556       18.26133001353181
H           29.13637372754200        3.60242371202914       17.67289873133952
H           26.78360684553632        3.97241210566681       18.45135739834283
H           25.57780763435174        2.04138997679564       19.48056133849237
H           27.00369894513219       -1.08000348683899       17.31420432052124
H           26.17842601456423       -2.64453906035838       17.41119317312426
H           23.96420727319925       -1.48638262062856       17.28165046840941
H           24.78596496258079        0.07713274325321       17.19372041826141
H           24.97357776791515       -1.09349163017043       15.88186084454565
H           26.76932378686833        1.35695065436863       21.81989397605606
H           25.46804562298054        0.67039257159624       22.80256197626876
H           28.58607831162501        0.78069853153169       24.89851092875807
H           28.34756651985598        1.87124846382373       23.53366135234587
H           27.01589007321602        1.54998775211188       24.64935016618875
H           28.34595666002671       -1.51532529450495       21.94787564168422
H           29.08564807695206        0.09187075480560       21.90419335745755
H           29.39437343740910       -0.98865590227582       23.27515182018222
H           27.53665222740322       -1.43534653175241       24.97750823104289
H           26.59825172811969       -2.06082118015918       23.60875225306080
H           23.17611716345193       -0.44535783798023       25.24681259984935
H           23.47970981613329       -2.17806922171722       27.58212871517819
H           21.04452556927123       -3.72659689951156       26.80776219041509
H           18.41992840704025       -2.82657088467309       25.81688963631064
H           16.74847808185115       -4.08212123735971       26.09814482903181
H           16.72860582897793       -4.85372351998349       29.05033416295520
H           14.32634799382100       -4.18035673088588       28.91207843579624
H           14.50423464249326       -3.89080725044152       27.18006342538094
H           14.63800907146265       -5.52665283635928       27.81495018726409
H           16.08648470571712       -2.48127867516086       29.39649693969288
H           17.69128874545104       -2.60035762292450       28.67990858329406
H           16.31403627914613       -2.15810205991472       27.67849865949755
H           15.37134814431220       -7.01731186159511       23.02449506234621
H           17.03426328832513       -7.58704431092868       22.87944037445875
H           16.30178302582540       -9.93643839586066       23.12685319221335
H           15.38016843191999       -9.17124617559555       21.80270443907169
H            7.66338174428793      -10.97786928210902       26.14710742856807
H            8.47130759450506      -10.77573485358031       27.70029955604095
H            7.75425671463593       -9.36480008452259       26.90016104895775
H           10.67305332260310       -9.94972075250159       27.82214606538174
H           11.40259318074272       -9.18697802702765       26.40401797991407
H           10.04423498984933       -8.39744471438993       27.23700189681558
H            8.96525647108809       -7.94669706718367       23.48373370811492
H            7.95187701113302       -8.15279395610106       24.91594741741215
H            9.59666579722887       -7.50754720635855       25.07014983278865
H            8.88991136148508      -10.45199066652903       22.78700067032609
H            8.89905534305324      -11.64519534899399       24.09014891939603
H            7.60036711740742      -10.43388436164659       23.98946515376216
H           13.47547053572075       -9.80474631849756       25.42205682548163
H           15.18222552567256      -10.27913970072515       25.24468443182149
H           15.01530868157936       -8.22664725376273       26.60023716383158
H           14.14456437158215       -7.39973212337107       25.29373406474355
H           16.30970122290294       -7.08028657665380       28.30709508561901
H           17.31581536728775       -8.03266668618235       27.20327902915586
H           18.04486172474643       -6.75281537686982       28.15274982576042
H           20.29119052215790       -2.10830306238137       24.32030640282538
H           21.95450653813738       -2.48747037288442       24.81706329365290
H           19.77749425850237       -4.46380363214300       23.98814661517896
H           21.11863217416207       -3.21582273607367       22.19112205498621
H           21.28429504253447       -4.99456054244537       22.16377728037321
H           23.33132451061330       -5.97060092795087       23.05048814977888
H           24.55375810646398       -4.89242151963934       23.78555920902066
H           23.07941097640517       -4.32405918207660       25.62105414004133
H           23.08205449105199       -6.10330471482602       25.49351344203727
H           20.94017065024384        0.33425330975606       28.51988587326194
H           22.48457981232145       -0.31423176807442       29.12913037792437
H           22.88891351549081        1.91898181288469       28.14724925744731
H           22.12192554158794        1.41751360200360       26.63252597125821
H           24.65360670165565        0.19966236422668       27.84743940833898
H           24.58217883307822        1.21095739902109       26.39426142613742
H           24.46809707480653       -3.79385801973469       18.60924829812964
H           23.13345746562429       -4.81629060223941       20.40579137338824
H           24.35637891865980       -1.82133158187046       23.16955399103491
