151
 energy: -221.316378258789 gnorm: 0.004655707700 xtb: 6.7.1 (edcfbbe)
C           30.65838724764700       -0.09431633206070       19.80319960635617
N           29.13186165331026        1.46611272532311       18.00601085721801
O           29.69994226787089       -1.42896590528464       17.96876394606976
C           29.40485843121336       -0.64750947469815       19.12536951761285
N           26.28270206064890       -1.84835336050272       19.07770542717888
O           25.00119731492568       -0.16970772406900       24.40326267692141
C           30.37339307144869       -2.64124833245154       18.22818558315815
N           22.71273794758090       -1.57578935365767       26.71762806875612
O           13.49249359485759      -10.45109906825327       22.55570687357368
C           28.51517295873164        0.48337409812402       18.64664565764723
N           21.51160883280563       -1.18097985940389       27.31619081105299
O           16.63158055375665       -6.66215100223604       24.57112136078626
C           28.42932867002342        2.48777184855309       17.55198502235750
N           19.08678025347469       -3.66683417736618       26.18414006064262
O           19.44213205198589       -5.21800663889241       27.77648025902095
C           27.05761024198229        2.59822343574278       17.71999200924158
N           17.07836358740872       -6.57796589764913       26.78083424113663
O           21.36900419682714       -5.35525863371768       24.79277953804113
C           26.40538886736874        1.57921149037748       18.38858817178823
N           14.28897964483956      -10.49095624563459       24.68632474467309
O           19.28902533158984       -1.41650036832958       27.52832186830347
C           27.13030937485805        0.48542230569658       18.86307350394596
N            9.32426794249841       -7.64588411816341       23.78477422827951
O           25.41552139425801       -1.67301370480306       26.01621714805312
C           26.40506493426404       -0.56982556607349       19.57823131431264
N           23.06548408726855       -3.98698332832732       23.03756954056672
C           26.64774364162241       -2.26657413095067       17.74644046602305
C           25.51933006277078       -1.99019334246733       16.75432635216993
C           25.71204076294416       -0.45230586777203       20.76222314379030
C           25.60062009253497        0.74656127703762       21.64729019982869
C           26.59061281493389        0.78364048451089       22.83537991000525
C           26.44388410477588        2.12982604709648       23.54939294972457
C           28.02603972372100        0.62010156910877       22.33863711207491
C           26.30498005848665       -0.34832232747083       23.83036632694326
C           24.69022737643163       -0.86547549183727       25.47729235353172
C           23.32367861645961       -0.45958110253525       26.00187930701542
C           20.35425024286244       -1.80804367201493       27.05994382233640
C           20.41089176620730       -3.09085503317121       26.22316205505935
C           18.70793378407181       -4.69779739993917       26.94758577741008
C           17.27185900387464       -5.13903504967585       26.65221355828819
C           16.24115750025536       -4.27843916762639       27.42765155202237
C           16.38567263713256       -4.29743156286477       28.94719440247685
C           14.82331869487025       -4.67131486387399       27.01636615226937
C           16.73643703405904       -7.23060593638654       25.66256102059706
C           16.27451243381728       -8.70112889428246       25.72569642228903
C           16.40370430941154       -9.35385243887666       24.34566674640727
C           15.66152217954370      -10.69189431434029       24.27899246984581
C           13.35193351276049      -10.20903547224249       23.75500846718769
C           12.16291524967454       -9.57128988055024       24.25471923149459
C           11.21825864752922       -8.87662321681798       24.52984784664510
C           10.12025709889076       -8.01962933969438       24.96006071702090
C           10.09050887221429       -7.22307396673699       22.63239591169132
C            8.24709476960729       -6.71075463637973       24.04183519046986
C            9.25509121027410       -8.85233540886976       25.92367067181605
C           10.74889546330631       -6.82617385804774       25.71203934509527
C           14.17380833327107      -10.05681436076030       26.05837459762792
C           14.82052657681914       -8.68087868445463       26.21883817200004
C           17.36131972341773       -7.21420140875919       28.05299492348743
C           20.92533997253093       -2.92435282064659       24.79200203039848
C           20.87959415749881       -4.26319801980466       24.02874594064361
C           21.66194779635408       -4.13769068776397       22.71380036312495
C           23.54942028889448       -5.17004880457856       23.72352183698322
C           22.76618837892259       -5.29527820634530       25.02895561443989
C           21.57752705711732       -0.04669810727119       28.22653458258347
C           22.16887988261423        1.16217460788200       27.50636863323848
C           23.51678571072982        0.77770422094157       26.90064676945386
C           25.11141727569228       -1.72248862317556       20.99913758102748
C           25.48848687627099       -2.56691316525686       19.92579832262952
C           25.07043871145449       -3.89267092230922       19.87499746254774
C           24.28263137785006       -4.36528750966567       20.90069120013618
C           23.88140846545401       -3.53249846024269       21.95654646096912
C           24.27634176060344       -2.21325281118813       22.00021864623299
F           17.03068285473890       -9.47513657757949       26.61179366098526
H           31.23531292205324        0.46791082567334       19.07591863816354
H           30.36800635968271        0.56528587814901       20.61443052067127
H           31.26216276215562       -0.90102373199633       20.20858122093179
H           28.84466653983921       -1.27743208515530       19.83694437516058
H           29.87519395058600       -3.20101459121339       19.02764952671970
H           30.32954167954044       -3.20878137167665       17.30127691562198
H           31.41881025628036       -2.47374729961450       18.49996800275881
H           28.99819657275646        3.24957839023179       17.03688136451624
H           26.51972629857682        3.45020776433628       17.33751933069141
H           25.33613158336640        1.61011051088090       18.53814960176048
H           27.55184430540579       -1.73696888985832       17.44049705041842
H           26.86801664207050       -3.33600352578199       17.77535949284810
H           24.60084674755115       -2.47079655023980       17.08350622593816
H           25.34295125606657       -0.92016249774526       16.67390649385496
H           25.78618953043162       -2.37331783907021       15.77422578550106
H           25.77105596564213        1.64505633206994       21.05230571245137
H           24.58818626579609        0.78643191064670       22.05183665158272
H           27.10252680468864        2.17477604240392       24.41354477159598
H           26.70404366446791        2.94152371378275       22.87604250515398
H           25.42022635714600        2.27028136851563       23.88530920162927
H           28.16298657646675       -0.35873266396897       21.89082287486763
H           28.24504643309271        1.37606115074561       21.59072069599431
H           28.72798718318668        0.72566475210570       23.15882603476371
H           27.04035122862568       -0.34861582171917       24.64150292008119
H           26.33863453237403       -1.32424273461981       23.33784978290501
H           22.67627630287569       -0.20064821400801       25.15853855313561
H           23.36816045555536       -1.92345567615693       27.41933524305421
H           21.03810023089041       -3.80652574866887       26.76726662022672
H           18.41969505152487       -3.22382702805740       25.57073217774741
H           17.09621105672084       -4.94394924000876       25.58784864868753
H           16.43161295046347       -3.25085336049031       27.09785911418375
H           16.03499455142654       -5.23320245283418       29.37065108927733
H           17.42130839560246       -4.13562651322263       29.23784654281210
H           15.78926604537024       -3.49220564435112       29.36937930075663
H           14.72521877811567       -4.68118684881767       25.93298896895734
H           14.57853351834499       -5.66246397617323       27.38919617988530
H           14.10876752912969       -3.96310693493048       27.42523724662477
H           15.99399708413690       -8.66459838775980       23.60631315058890
H           17.46223148274647       -9.49866942027836       24.12699911055360
H           16.12623584386202      -11.42003015284381       24.94758683789062
H           15.66914361618439      -11.07245666507833       23.25687601494464
H           10.57889384631371       -6.24419406668671       22.77012826521678
H           10.85366009323377       -7.96213341135259       22.39630257180665
H            9.41194343206103       -7.14531265412110       21.78380627480867
H            7.79886417696827       -6.89461958301139       25.01179545396207
H            8.57737660216030       -5.66223290744876       23.99487646870293
H            7.48133542319118       -6.85897405632881       23.27883604595690
H            8.56859773647285       -8.21939014218206       26.47751839063220
H            8.68860338056341       -9.58487107941035       25.35682448457404
H            9.89239701784893       -9.37064372510240       26.63503764259201
H           11.44038924167615       -6.28810869989372       25.06684856716363
H            9.97096137526953       -6.14425608837529       26.04397651087626
H           11.29525614423168       -7.18399299830873       26.58029726727933
H           13.12273048607238      -10.01627983204326       26.34257623112626
H           14.69393542926237      -10.78482434078916       26.68612005010085
H           14.79582927812110       -8.38221438949442       27.26585495987841
H           14.27376772252330       -7.94666953312718       25.62404761140220
H           18.07789943656945       -8.02309388312765       27.92989599079101
H           17.81448129014472       -6.47847329602339       28.70575837015873
H           16.45320025250622       -7.60732637920613       28.51032321041001
H           20.30653950810873       -2.20419889626663       24.25745212077775
H           21.95410586430427       -2.57356934780521       24.81114759107765
H           19.84295092445578       -4.54528849140580       23.81533592574108
H           21.32692412867373       -3.25864416308974       22.16245085177061
H           21.47267545292405       -5.03608311145985       22.09852045376770
H           23.41046922467529       -6.08970158022966       23.12789584764770
H           24.61039810949602       -5.04197267046605       23.94343614228922
H           23.01159591291196       -4.44509720548239       25.67615893115203
H           23.00799382784474       -6.22556168471262       25.54518362078688
H           20.56406727884453        0.14746672814213       28.57643988303687
H           22.20683299191959       -0.32668575104962       29.07855267625585
H           22.29095410895414        1.98191329770080       28.21247506747787
H           21.48687253069251        1.48098837911801       26.71725629434429
H           24.22768622606057        0.53202096219011       27.69338744785746
H           23.92459807857436        1.59803957825916       26.31167788737650
H           25.35033036604577       -4.54350114080653       19.06032215652572
H           23.95438135220155       -5.39452105205586       20.88900870563515
H           23.93096005855988       -1.58684903135025       22.80550821636404
