151
 energy: -221.324509847388 gnorm: 0.008955537257 xtb: 6.7.1 (edcfbbe)
C           28.82216424399103       -0.93071035279392       18.32914181280081
N           26.93440989546578        0.74584332863230       17.10499631796033
O           27.25678049439441       -2.20726209093005       16.93194027557077
C           27.38509661581717       -1.39894000502343       18.10258060679515
N           24.21270921209462       -2.37185607917814       18.91585565093050
O           24.60758357556989       -0.76018814495632       24.38917849799861
C           27.76506463413420       -3.51616453666738       17.06583426252378
N           22.68264665456345       -2.04334972674676       27.11179831680548
O           17.45978343724359       -8.54235689756352       22.60791475829805
C           26.46913756036637       -0.20791545713654       17.89815023681643
N           21.61904716508075       -1.58974759415343       27.90099956664372
O           16.29279295690687       -5.15444027545242       27.23712419791135
C           26.20154966371680        1.82187932821069       16.88131202650164
N           19.18687349103834       -4.29931586688485       27.83584209400129
O           20.04793179213427       -4.84203392920956       29.85189205199391
C           24.95744668026142        2.02271062539662       17.45745495875498
N           17.28788418694013       -6.31824553286867       28.88680506778972
O           21.48392965572989       -5.87143515931376       25.92839734701812
C           24.46113978587008        1.03041788534423       18.28305455647706
N           16.04215412711945       -8.75309564465802       24.36596762805808
O           19.57243878381803       -1.90198179805923       28.76457411023168
C           25.21044568859203       -0.12397279983368       18.50925638667279
N           14.44062443501554       -6.74450082109855       19.18968154551362
O           25.10514349373844       -2.37823545717406       25.86096342016335
C           24.64317302390340       -1.15248634136719       19.39045754924635
N           22.18819460335051       -4.41263158459943       23.63807294191753
C           24.16365370516978       -2.76186202031583       17.52870128181988
C           22.82785691907520       -2.38251046076314       16.88972684570857
C           24.36997100305149       -1.03799607765620       20.73467961286756
C           24.65848595182551        0.12940655969474       21.62234879432924
C           25.92261991526929        0.01012002390436       22.50623458327755
C           26.16205799581459        1.35676302561900       23.19390481813875
C           27.13794569794213       -0.35901024033457       21.65951582937393
C           25.74619793870883       -1.07363862373435       23.57709262414608
C           24.38490958710311       -1.48794139055764       25.46708269508492
C           23.12551288013249       -1.01604179602208       26.17568238106868
C           20.49023255535410       -2.29933499863085       28.05580755489516
C           20.40483469454136       -3.67232514386928       27.36777422736897
C           19.08107400555708       -4.69568569552333       29.11439054810279
C           17.64340794406397       -5.04652030680927       29.52401716723945
C           17.46258498674689       -5.01696792160522       31.04655243574772
C           16.06911913408273       -5.50221451595244       31.43915929985458
C           17.66565408420598       -3.57915508099381       31.52680269826334
C           16.61514954716601       -6.23822782715292       27.73140028771502
C           16.24137509689912       -7.51453896896643       26.95179493221496
C           17.47309548883579       -7.99772470349810       26.17776262845764
C           17.10104719981618       -9.16232872303014       25.26031460295524
C           16.33405104474582       -8.41530249819650       23.09742579575280
C           15.25330056900665       -7.92609120366404       22.28279575235452
C           14.53760130502140       -7.50700660002985       21.40837623181859
C           13.62316053489853       -7.01330747797029       20.38102214998502
C           15.49001153108343       -5.76927428335170       19.40247618942987
C           13.70773678606896       -6.44469929245676       17.97824620387400
C           12.62165081341217       -8.14580021137694       20.10121723233314
C           12.87154189593024       -5.78315995394106       20.93237015895149
C           14.82170442258019       -8.39887778655365       25.04932813979095
C           15.07382274402948       -7.22580704875144       26.00202315245094
C           17.98708165728524       -7.48315703026065       29.39140720291724
C           20.43820334558875       -3.63917777998306       25.84460837318397
C           20.53433397664685       -5.06168982066561       25.25595259293762
C           20.86854760970854       -4.99340479756799       23.75701851929774
C           23.17366471829733       -5.28117069425794       24.26562400506907
C           22.82345082366352       -5.43601611012601       25.74196471143412
C           21.82608362004326       -0.34527385007704       28.63131431797103
C           22.19814892107122        0.76573664899454       27.65599145829222
C           23.42432754863773        0.33411372820405       26.85598507039935
C           23.71793378810735       -2.24882249734847       21.11017859899912
C           23.62582970915935       -3.05217052195563       19.94570449860736
C           23.00510598036188       -4.29662417935189       19.98027242941920
C           22.50877071903610       -4.74830277972795       21.18477393213174
C           22.60422096317155       -3.96951270572646       22.34723158749309
C           23.18154011139667       -2.71848019637629       22.30494903965951
F           15.82276255274993       -8.52388384562049       27.82679420635323
H           29.47459347921563       -1.77233371475454       18.54380411680254
H           29.16575331403056       -0.41711333647547       17.43724890797362
H           28.85324564533388       -0.24251361845078       19.16870981400331
H           27.03343711176231       -1.98078532918305       18.96943845740843
H           27.54044374498094       -4.01742078559209       16.12662416033801
H           28.84678062270423       -3.52088926097606       17.22912514126961
H           27.27143286185063       -4.04223414605988       17.89391652047923
H           26.63985502198864        2.55277443101215       16.21541550613911
H           24.39553082774320        2.92113770020031       17.26279320481937
H           23.49037373362341        1.13134312111925       18.74698207524348
H           24.98436626487375       -2.27668050506979       16.99704693298554
H           24.31022046902674       -3.84422736454194       17.47108309743949
H           22.00557265866026       -2.84664434575034       17.43038963857831
H           22.69421025575032       -1.30334418404373       16.91056719777067
H           22.80551735239062       -2.71718582438556       15.85733308287077
H           24.77815419857750        1.01856965910996       21.00094649800665
H           23.80355953862000        0.28390422268675       22.28361950986762
H           25.28898163236647        1.64530539062857       23.77251612240191
H           27.01694302192742        1.29529554453290       23.86293314904693
H           26.35833483694508        2.12756083742153       22.45397206752373
H           27.25934113777322        0.36116618018130       20.85380525775699
H           28.04047612588777       -0.36004378993759       22.26488106008906
H           27.01412586769617       -1.34689906247756       21.22458928066992
H           26.62976360328450       -1.13827734233629       24.21909929957032
H           25.58454512919837       -2.05265155411187       23.11727431389018
H           22.33653731796027       -0.87084624750774       25.43164220745847
H           23.47273153516747       -2.31319511360179       27.70357083430356
H           21.23903921843982       -4.27449729715522       27.74763076068578
H           18.33730334594057       -4.09051414811353       27.32840400317683
H           16.97786434514986       -4.29317068100397       29.08863870961780
H           18.23266051533225       -5.63782800082016       31.51167805799482
H           15.94766104315179       -5.43870404512622       32.51697663192046
H           15.31267433075945       -4.87585782030439       30.96982869908421
H           15.89884994014930       -6.52987208759226       31.13210852849765
H           17.64834904407545       -3.54829394924808       32.61486600192782
H           18.62746152164951       -3.19599684697143       31.18602445550633
H           16.88349204118968       -2.92686466645800       31.14029896817636
H           17.83698285774892       -7.16275403359578       25.57546897601775
H           18.26469628414904       -8.30092551378748       26.86010956568625
H           16.75067623179779      -10.01118844027818       25.85299676696552
H           17.96036783181077       -9.45975620491037       24.65890186428942
H           15.99678565382301       -5.96992280750510       20.34337898089018
H           16.21740823565009       -5.86630792806676       18.59671524422340
H           15.12091417937153       -4.73307657618724       19.40756146253584
H           13.16393605263113       -5.48905112473083       18.02057428225069
H           14.42768536988779       -6.38395555355607       17.16451420103905
H           13.01090110813645       -7.24339044001760       17.74962194756331
H           12.23811374014580       -8.52957238492394       21.04320248513027
H           11.78499786545999       -7.78257177922358       19.51177570493073
H           13.11959888334783       -8.95332529736260       19.57175102218536
H           13.57138099145863       -5.02109204293729       21.26653359723088
H           12.23114165305999       -5.36601768576233       20.15910384759680
H           12.25180607433937       -6.07856594869141       21.77492298259490
H           14.06061021528444       -8.12968812052470       24.31604507126196
H           14.48316723888630       -9.26829985546310       25.62075511768496
H           14.17947499472794       -7.02917265045029       26.59406036723001
H           15.31572261028089       -6.32407060259728       25.43944404136785
H           17.53415327259933       -8.40404041763269       29.04862696459529
H           19.03591833345222       -7.44478616591233       29.08375184312686
H           17.95453659585218       -7.47220852179573       30.47695398817550
H           19.53474473326307       -3.16470256071010       25.46231633153456
H           21.30708704368129       -3.07727652380741       25.51047032567743
H           19.58704121614337       -5.59067268219346       25.40348481590611
H           20.14911609769495       -4.35902599257174       23.23869434824437
H           20.80865382550974       -6.01459981315245       23.34032913458179
H           23.19702031216996       -6.27240715544262       23.77937107491109
H           24.15744836409321       -4.81815753552825       24.17719170191038
H           22.99305055821297       -4.48040884633083       26.25017226252981
H           23.43997625776289       -6.20743670678765       26.20461376209533
H           20.90014434080395       -0.12786589345649       29.16259001347861
H           22.63043026635699       -0.50007135661419       29.35917675123976
H           22.40568081040394        1.68069889170779       28.20854439124328
H           21.36135089288711        0.94894924215421       26.98112481469096
H           24.28318152429105        0.22108129444023       27.52300900680709
H           23.67183970654015        1.07322773055660       26.09547312010506
H           22.91444641178428       -4.90722962174052       19.09473759609246
H           22.03391491266849       -5.71716101822146       21.23572853739650
H           23.19633791663601       -2.13047077289307       23.20553183075923
