151
 energy: -221.321075363944 gnorm: 0.009857018430 xtb: 6.7.1 (edcfbbe)
C           30.03441904607523       -0.93726631116989       18.87711405311907
N           28.64321334647428        1.28028087162388       17.82970600547928
O           28.40496757827581       -1.60574813347103       17.16320187727563
C           28.56717251466278       -1.04255940417162       18.46509640489667
N           25.25726856368378       -1.49373947988308       18.93321271461114
O           25.46157249454035       -0.74265691278539       24.57647179696327
C           28.62549502620884       -2.99856048147889       17.09363894730031
N           23.25085669739519       -2.01395182851819       27.05057491149483
O           15.31971184722335      -10.34837373509419       22.53245657708013
C           27.92561779084112        0.33109260266838       18.41214873462985
N           22.25443452359074       -1.50147865965545       27.88859925528439
O           16.26798127322858       -5.08667591601035       26.04366908048128
C           28.15146049288525        2.50185164316353       17.73487564768933
N           19.33427047117630       -3.57208027076260       27.18397082835111
O           19.89995693584350       -5.05824969363068       28.78092985022394
C           26.90882951311123        2.85894214063148       18.23240964618294
N           17.17200517930946       -6.00544458997120       27.89353682997015
O           21.06645232828293       -5.26359904240176       25.04757866433291
C           26.15417580373790        1.87627372608135       18.84418917060736
N           14.74186299869875       -9.26072047527710       24.43375382178748
O           20.13602040022592       -1.53344968545771       28.61758308608083
C           26.65007480313659        0.57627080485974       18.93794822860598
N            9.76649336876729       -9.34075524739179       22.32478991457539
O           25.70573912293905       -2.54524745340151       25.89074911100041
C           25.82182700369973       -0.43424474922768       19.60794003218126
N           22.46362439960562       -3.75959177453575       23.13934899642282
C           25.25295190106264       -1.67279541934931       17.50251940653994
C           24.03257826233785       -1.01126823935295       16.86432742418937
C           25.43371061178913       -0.44406029006863       20.92934853063808
C           25.81381426376781        0.53922263289610       21.98842013410257
C           26.98511154104682        0.12387461158169       22.91193729761051
C           27.33652080818178        1.30625083170750       23.83732739598556
C           28.20199781623294       -0.26963856265691       22.07691278753004
C           26.59250445490639       -1.08911006795376       23.76598566615546
C           25.12302791594353       -1.53034607776743       25.57581150430549
C           23.93664632822111       -0.95027508203882       26.32668353774952
C           21.00280653573907       -1.97394402970787       27.86700865322207
C           20.69204278026992       -3.14431251224272       26.92284724967114
C           19.04329541608024       -4.45262110312913       28.14603306001682
C           17.54518193315961       -4.67844130951977       28.37969548004657
C           17.20560635926910       -4.48055946028130       29.86866970292588
C           15.73319232277078       -4.77356208402479       30.14466871414282
C           17.53268315191026       -3.04221805938929       30.26708997775314
C           16.45862439548599       -6.07023406233099       26.76307974285155
C           15.80962290303210       -7.40552733499953       26.35748165292781
C           16.71797628882085       -8.24864038298136       25.45781328699716
C           15.99944078635466       -9.54617315971568       25.08672802797008
C           14.49457778754651       -9.71563349852291       23.19521796576746
C           13.17637286435050       -9.47433529713811       22.66586104437043
C           12.12364593170945       -9.44892130695446       22.07934718094037
C           10.86042104312910       -9.40098459691520       21.34608083926492
C            8.43934610313059       -9.56902089843935       21.79220705932008
C            9.78469229280317       -8.14728671964347       23.14631653276815
C           10.92267235551624       -8.19686009441586       20.38235671940406
C           10.79136754109891      -10.70216908780898       20.53091474031990
C           13.82994267008547       -8.46010134876165       25.21487929483894
C           14.48871867506467       -7.14040951404486       25.62797254397069
C           17.68403937701115       -7.13704023077881       28.64095010599029
C           20.87383746279790       -2.83095009840369       25.44009183404802
C           20.52976505103365       -4.04539182942694       24.55539135756656
C           21.01510938951018       -3.78934654219956       23.11961836151281
C           22.98296371044676       -5.05034112162543       23.55136879224306
C           22.48090825446157       -5.33129731583727       24.96699320711845
C           22.65652817771248       -0.47303639390578       28.84104372564297
C           23.30699558579824        0.69035223009860       28.09948270942057
C           24.46300672476417        0.16463743705103       27.25272536023981
C           24.56745249699620       -1.56648901447013       21.07868364545980
C           24.47677099965755       -2.19329218191532       19.81016500045146
C           23.69660911415524       -3.33021612624090       19.62434587965701
C           23.02382738547966       -3.84316826800037       20.71262681085322
C           23.10021482872791       -3.22975389050021       21.97154283980108
C           23.84865553139266       -2.08712717516930       22.15236753537799
F           15.50079258722471       -8.13674286334153       27.50974122349107
H           30.10534024160779       -0.46313975541340       19.84991082984072
H           30.48825879663411       -1.92202922924477       18.93379733970365
H           30.56409333047479       -0.33461860596407       18.14652635292896
H           28.01847347541069       -1.67115967600903       19.18497418335488
H           28.00563677189504       -3.52794431296861       17.82923052369955
H           28.33516172655406       -3.29350706877651       16.08762233115115
H           29.67734453500249       -3.25622814316122       17.25669117620398
H           28.78805209689061        3.22404984193504       17.24350214394279
H           26.54430720787532        3.86907612881103       18.14279953583231
H           25.17596369365434        2.10189840101526       19.24132133376934
H           26.16767672417496       -1.24185053731449       17.08979080039740
H           25.25398969641141       -2.74607507480716       17.28953991414531
H           23.11654885660031       -1.41450412570076       17.29018395874298
H           24.05411287314841        0.06199053329753       17.03793361469003
H           24.03256498129002       -1.19031550703651       15.79356805772838
H           26.10296117145239        1.47255876469581       21.50271004734283
H           24.94312469798953        0.72896620092625       22.61806839136372
H           26.77907765895423        2.19587307220433       23.56369461269416
H           27.10069940483845        1.07284017848898       24.87190021129197
H           28.39590971776602        1.54033056539588       23.77829898538383
H           29.04409250345687       -0.51741864390230       22.71790227104641
H           27.97521006784935       -1.13455396746591       21.46192722479536
H           28.48497123530531        0.55209956500821       21.42480038027610
H           27.41648216226037       -1.39260937849104       24.42059717597820
H           26.32076133489128       -1.94152497768209       23.13681564694115
H           23.23606894501835       -0.51735238898369       25.60632266992188
H           23.93659836457507       -2.54941298313983       27.59134912296370
H           21.33850185487261       -3.97897484765375       27.21509010488986
H           18.59481616871614       -3.05330082064140       26.73925499288571
H           16.96970563596965       -3.96421174555891       27.78346066382655
H           17.83359811987655       -5.15543320874129       30.45769871596077
H           15.53217104651797       -4.67063318022178       31.20470012720530
H           15.10427340893948       -4.07279540045595       29.60302548844134
H           15.45935963314464       -5.77950986756882       29.84141982520805
H           16.88129689443601       -2.34573447601037       29.74342951523943
H           17.39145522409706       -2.91078250976578       31.33574435054966
H           18.56121550488526       -2.78660084699803       30.02323442502074
H           16.93941414562729       -7.66773791145368       24.56357772965169
H           17.65791161476741       -8.48203678291402       25.95450421689855
H           15.79527151904971      -10.12142606582456       25.99815283267287
H           16.60621221243563      -10.14735027072671       24.40648556670150
H            8.38450829228466      -10.54405019744368       21.31820892737020
H            7.74201112615985       -9.56148487621967       22.62867734955247
H            8.11657091768441       -8.79927650710330       21.07506563970588
H           10.80183702590946       -7.94457168766720       23.47631305938300
H            9.39567597530477       -7.25907576898616       22.62634059548574
H            9.16452754891850       -8.32646238410651       24.02468102966015
H           11.71109475405187       -8.35478411659124       19.65299989323790
H            9.97775888854285       -8.09333363019522       19.85783620575385
H           11.13229684916298       -7.27716868843335       20.92139313071445
H           11.74496215836371      -10.86315373063056       20.03325700283942
H           10.60022061413192      -11.54473944796304       21.18903529892309
H           10.01365644464806      -10.64261825280668       19.77520734884272
H           12.93431368365150       -8.26360611587632       24.62565152277492
H           13.54608601704096       -9.01658075234112       26.11591206108828
H           13.81630522242339       -6.58519523400880       26.28379546811557
H           14.70622989548313       -6.52111616124605       24.75857677715819
H           18.63297127572906       -6.84098208079640       29.08522866977802
H           16.99341549248387       -7.44204954804747       29.42787858519307
H           17.86147852307181       -7.98675112279871       27.98496565782472
H           20.22656502359631       -2.00266327410164       25.15333950858679
H           21.91002274278380       -2.55781313180724       25.25535385969775
H           19.44814724633422       -4.22000210314515       24.55842732079931
H           20.64484942205080       -2.82615443166221       22.76728367627772
H           20.61800391207710       -4.58456246875194       22.46217644710026
H           22.65946020891339       -5.86460775335432       22.87794308748275
H           24.07323017055987       -5.00888151722532       23.55808700131587
H           22.94303933226450       -4.61460491030519       25.65656653542569
H           22.73592041293872       -6.34602774318819       25.27460023304829
H           21.75908689799893       -0.16147220793900       29.37474896538709
H           23.36296529647474       -0.91333938230461       29.55318997329762
H           23.66908199289518        1.42288486211948       28.81993884417301
H           22.56684843389421        1.17107353859804       27.45784079532433
H           25.24344346651868       -0.24479893916436       27.89931232867970
H           24.89345906103421        0.96207880342222       26.64836210844342
H           23.61866276724738       -3.80965683795138       18.66006015016625
H           22.42472751312558       -4.73556846908349       20.59539615293707
H           23.86394989731001       -1.61881870818852       23.12078666737627
