151
 energy: -221.330112645348 gnorm: 0.009989421821 xtb: 6.7.1 (edcfbbe)
C           27.31475769961689       -2.55156185292210       17.71778401919355
N           26.35448791300197        0.04696955767762       17.06422931944629
O           25.24130277526767       -2.57892582091895       16.39963894563205
C           25.82290041763703       -2.22548071376862       17.65403391405308
N           22.87297902550338       -1.96805387127541       19.02311511091570
O           24.66356562153404       -1.50782602452328       24.47203515786760
C           25.09183244921029       -3.96453611925897       16.18073104161812
N           22.93135604395603       -2.46431428557201       27.42488404896682
O           19.58882483130062       -8.06371338136002       23.24480022914351
C           25.58717697554411       -0.73507869405819       17.80852299805200
N           22.22995953043904       -1.81135503113837       28.44120248099757
O           16.63694275857887       -5.24602034408924       26.52915850401257
C           26.20046490056084        1.35761936043347       17.12541346823344
N           18.91108560011086       -3.34922772378666       28.31468352389076
O           19.27630888738019       -5.26861758114240       29.44638152912529
C           25.26712542653924        1.97389542045678       17.94414070023693
N           16.73107789345983       -5.99883568464091       28.64258535982740
O           20.08535704635386       -5.37970695523433       26.05752730711865
C           24.46390037057564        1.16718095349548       18.72841300468937
N           17.72896629187844       -8.83951795118553       24.30347983422967
O           20.28166512735809       -1.39894207787441       29.48192724670558
C           24.60777750734641       -0.21926797007497       18.66996448843675
N           16.92259225012378       -6.35558332549702       19.09003719169226
O           24.91457246933721       -3.36611059074960       25.70362011323531
C           23.77325900293102       -1.05775372987736       19.53386479800658
N           21.05381740432746       -4.08530646052143       23.78601218842297
C           22.39926987667588       -1.99308072235756       17.66102239937165
C           21.34839439739430       -0.90849392211552       17.42840056524685
C           23.76065020691297       -1.08894758850029       20.91066073541259
C           24.56695050425328       -0.24551351823226       21.84555840608972
C           25.83344892739354       -0.90953623423165       22.43460839121111
C           26.63316328373314        0.15499590395284       23.19116736070924
C           26.69086257115495       -1.49914734873152       21.31595885525603
C           25.46719578907888       -2.03779060740863       23.40615095693995
C           24.45704212403966       -2.25714289999246       25.53645040931201
C           23.61445939317619       -1.51096355269765       26.55805453302334
C           20.91921986285197       -2.02714506463486       28.64409541956836
C           20.26277641091577       -3.15247762263754       27.84037898912075
C           18.50847449509109       -4.43429807427190       28.98136538290257
C           16.98094476324906       -4.60969159072079       29.04294745010418
C           16.36828456511134       -4.15592524887455       30.37298526272950
C           14.88012891774309       -4.49919827992925       30.42199328713174
C           16.55988545426402       -2.64226306743362       30.49199552025543
C           16.67531336558258       -6.19280300185792       27.32047691429262
C           16.72894041638351       -7.60276028804016       26.70052879213883
C           18.21310503497460       -7.93824000831219       26.50015959418957
C           18.42559388179021       -9.11287919121127       25.54102737778052
C           18.36325137360861       -8.18380035238463       23.31187799589243
C           17.52575390306763       -7.61701500860456       22.28632760395569
C           17.01460536164745       -6.99079013999722       21.39304620042682
C           16.28567813274567       -6.20193489653705       20.40515106360998
C           18.36655629867959       -6.25217540258156       19.09792703718597
C           16.37133841634724       -5.50907365805496       18.05081707894838
C           14.84968802099461       -6.74999657331669       20.34693291754501
C           16.27133091919741       -4.75261115104084       20.94380900329318
C           16.29808879210416       -8.78074744193077       24.48973409416648
C           15.94560523885201       -7.59195225812797       25.38174142011470
C           16.89725424662874       -7.05342409180293       29.62230583933529
C           20.20693924250839       -2.93384492227620       26.32505975946418
C           19.53680085296974       -4.13614491599651       25.63580048375209
C           19.64804580914755       -4.01206192546740       24.11266151586585
C           21.57107691067210       -5.40065248427940       24.11465569004868
C           21.41994723806472       -5.59480078695912       25.62247924051891
C           22.98215827319605       -0.87697380014004       29.26987822271040
C           23.67845205019644        0.16331541576476       28.39609896847881
C           24.52574678289188       -0.54946402719906       27.34545864112934
C           22.80048914771331       -2.07735955901809       21.27327714981661
C           22.26515197243716       -2.60218969881377       20.06970286774947
C           21.31640510324835       -3.61964386843294       20.08203422397895
C           20.91732283713487       -4.12529000919044       21.30028007590196
C           21.42306550871225       -3.60032120625869       22.49698952771631
C           22.33594366751428       -2.56778438388205       22.48982788563179
F           16.14809270839392       -8.57140147469995       27.52420680995600
H           27.72236399329437       -2.20518689297497       18.66141673586608
H           27.46947941744604       -3.62461240686014       17.64315046108096
H           27.82300721371620       -2.05115458815015       16.89972133911643
H           25.29116589627754       -2.76731404155901       18.45380063926880
H           26.05837341798116       -4.46817560396902       16.09360076668180
H           24.51379984497892       -4.42551516619956       16.99186073451065
H           24.55015276746180       -4.05833611604777       15.24098749391572
H           26.86097798790297        1.93059009577305       16.48919764198433
H           25.16933986854860        3.04686150195307       17.96544722173649
H           23.71162994048097        1.59096140236287       19.37694120087533
H           23.24068101732858       -1.84385017044743       16.98211006416884
H           21.96999799265821       -2.97851572717179       17.47373559204075
H           20.97322208286262       -0.96867446356259       16.41143807796285
H           20.51794820853321       -1.03036167157816       18.12006239473200
H           21.78741439258400        0.07535602461942       17.58025926046210
H           24.89315905320193        0.64866076338218       21.31356620210135
H           23.92966454944198        0.05994784506525       22.67644201070449
H           26.01593775156283        0.61811040329723       23.95624029863613
H           27.50057319209496       -0.29309554157456       23.66893327528963
H           26.97723914181940        0.92525055005948       22.50702904564241
H           26.17110082928431       -2.32797062787223       20.83261745817547
H           26.89327058056817       -0.73415774117801       20.56683637070298
H           27.63942740585523       -1.86356409054732       21.70966104550494
H           26.36507269371741       -2.48973272661713       23.83966529445303
H           24.89713242256197       -2.82322229006413       22.90217253808641
H           22.85277104158599       -0.92778917130392       26.02892893638037
H           23.60975089847211       -3.12271232943507       27.80643796044910
H           20.80662249584405       -4.07809667921582       28.06066315947125
H           18.23520040521982       -2.65793129901651       28.02206133484411
H           16.53398301789996       -4.00354665893604       28.24838668529281
H           16.89098720277895       -4.63150311026870       31.20715033801764
H           14.41647019377797       -3.99992231234968       31.27357225820240
H           14.38849109220313       -4.15579576949709       29.50947032723158
H           14.71862754037583       -5.57280271150969       30.51619471854190
H           16.03320300085713       -2.13321691327829       29.68817507515483
H           16.15552335754086       -2.29344802341424       31.43792481309939
H           17.61237426048589       -2.37103358397910       30.45026880046028
H           18.70309740676981       -7.05047607582978       26.09080990839302
H           18.67820917092694       -8.15350993162644       27.46315653621804
H           18.03040386627581      -10.03753425953991       25.96462376411300
H           19.49018523396105       -9.22641234036441       25.32888010803523
H           18.78374394518605       -6.88963721982237       19.87511400357575
H           18.73705143657846       -6.59770163453279       18.13377830249810
H           18.72481755356535       -5.22348002925996       19.25666620706563
H           15.29111711422913       -5.60945242662636       18.01440931147984
H           16.63388227272890       -4.44781290761595       18.17518146587601
H           16.77648348667800       -5.84683626259626       17.09747790242374
H           14.85327023048110       -7.73061712925657       19.88024482918934
H           14.44897631271130       -6.83444340503639       21.35449716010943
H           14.20573027602707       -6.08554343240086       19.77847683273815
H           15.86181591594299       -4.73999098655607       21.95073184395095
H           17.28044073897578       -4.34761400352359       20.98185085573492
H           15.65450892175818       -4.12386580924827       20.30727945725123
H           15.80371803091311       -8.68361040861920       23.52255719792683
H           15.98402099701915       -9.71381985446475       24.96456777300347
H           14.88000646943856       -7.59398342976176       25.61199738815620
H           16.19141548655553       -6.66147862619228       24.86940396548894
H           17.72802120980580       -7.70876416442510       29.36137965567035
H           17.12597529703694       -6.59990905186537       30.57974921432372
H           15.98570538432790       -7.64498779489778       29.70413403521768
H           19.62667475260413       -2.03888361041464       26.10180249651840
H           21.21168835841227       -2.82219630802847       25.92714099448833
H           18.48209590179403       -4.20824382272987       25.92154769679087
H           19.24841186796102       -3.05431827540257       23.77960933742563
H           19.05839003611941       -4.82718911145164       23.64956158206233
H           21.03796046203220       -6.20896444594259       23.58013609747611
H           22.63077236454637       -5.44305732977812       23.85135570176235
H           22.10389923213502       -4.91520335395926       26.14414505174189
H           21.64482204760319       -6.62416758461691       25.90307913755618
H           22.27448976455618       -0.41765981320073       29.95935580533313
H           23.72519379553106       -1.44583086344349       29.84060388715399
H           24.30156515100558        0.79951162838659       29.02231767653214
H           22.92997103201266        0.78545653169873       27.90442406165599
H           25.31989061067128       -1.12377423554694       27.82851703161869
H           24.98122107099484        0.16516366136367       26.66170044439432
H           20.91301953288958       -4.02302658950364       19.16527745344582
H           20.20942485027594       -4.94244879606019       21.34253516269625
H           22.66897097146311       -2.16668720839743       23.43169564834683
