151
 energy: -221.318930768741 gnorm: 0.009725267810 xtb: 6.7.1 (edcfbbe)
C           30.04174521050776        0.50980326381201       19.35447837222015
N           28.12311104531169        1.10873861504191       17.37653338554681
O           29.45100211752787       -1.45811451146766       17.99665847049162
C           28.97451630794253       -0.50515018483593       18.94604442672339
N           26.30801106982750       -2.45430614406939       19.42471413809981
O           24.64859649699880        0.09186626476915       24.29596134167100
C           30.41443683205339       -2.35842473257739       18.50027469005927
N           22.80056613614483       -1.42503989347991       26.92995017130697
O           13.69867666042161       -9.09597620294803       21.64578111092563
C           27.80423576477265        0.19453537513070       18.28209847206657
N           21.56938657588766       -1.20904451667147       27.55696964621534
O           17.02066632680660       -6.17999960898055       24.80804503584351
C           27.16395293786355        1.76036971007112       16.74573671924144
N           19.39735055488618       -4.03445482199607       26.69946671571973
O           19.59311320874328       -5.45055640057599       28.44705036153356
C           25.81577994448485        1.55111074500433       16.99244183968613
N           17.32117385244572       -6.73911209232205       26.96568410923878
O           22.39431558965257       -5.62360590166845       26.03356134513391
C           25.47348881121304        0.60304294780107       17.93830330718388
N           14.34865747226098       -9.63039834128055       23.75330105288398
O           19.45034641635911       -1.77667384017797       27.97855444807468
C           26.47396822270611       -0.10895240734622       18.60130098284489
N            9.44018198903883       -6.62504190826356       23.01387405420915
O           25.41565362814598       -1.08523897727515       26.04507450231445
C           26.07455526967703       -1.10693585843110       19.59954431075001
N           23.74858740814681       -4.33365637943706       23.95290198163627
C           26.73026229258370       -3.07144410180439       18.19199710778323
C           25.53796036321396       -3.30943677596165       17.26574846183883
C           25.38662418263942       -0.88853310151672       20.77170427355666
C           24.95769495419468        0.41859153366090       21.35339117343606
C           25.90605234529886        0.99956413813118       22.42931753311721
C           25.40566477535431        2.39125779580988       22.82359539310902
C           27.32819867605200        1.10267379199455       21.88073295979419
C           25.94369717155422        0.10521130696085       23.67480163568326
C           24.52044588496022       -0.51886262867752       25.45659378883541
C           23.11484777892348       -0.33889321324933       26.00454690916328
C           20.52956080600923       -2.05179153052580       27.45842956456648
C           20.70802280240952       -3.42386944224023       26.79277084901961
C           18.92483205136668       -4.95088598835585       27.54953795552148
C           17.45792499844032       -5.32058978479894       27.30087843218763
C           16.57938089722818       -4.93783431587552       28.50977541847858
C           15.10236423941444       -5.11410342140562       28.16228975746025
C           16.85020438581059       -3.49224529105070       28.91978105642908
C           17.01143477446680       -7.03701141774758       25.69768426991768
C           16.42238328877752       -8.41673408159750       25.33207690883691
C           16.59518359600978       -8.69797895234744       23.83697226459079
C           15.72407659745545       -9.87102326234679       23.37694887319439
C           13.48331966943391       -9.11897830337293       22.85931280277147
C           12.25108137079649       -8.60388697890069       23.39473325194663
C           11.21295379743474       -8.05803065176249       23.66340576749375
C            9.96453120824942       -7.44837867791142       24.11212457454393
C            8.23662499536435       -5.88104681280130       23.31914823702449
C            9.29596063211742       -7.33159448890797       21.75808907434398
C            9.02940770857688       -8.59150785623399       24.56090092855179
C           10.31361884444516       -6.55747885145365       25.31760635132683
C           14.16351388911377       -9.54625698572417       25.18013897987396
C           14.93965402546806       -8.35199431770985       25.73603137104949
C           17.57223816599705       -7.68894591602614       28.03115775931561
C           21.36653814423514       -3.46913724522749       25.41647556192092
C           21.67614541067730       -4.92583255594249       25.02655937799862
C           22.46072785284014       -4.95352037295052       23.71062466838438
C           24.50462910740425       -5.11818888298991       24.90981732800272
C           23.71662813227792       -5.14185158912589       26.21945058470523
C           21.43395771992475        0.04839034249003       28.28335974600475
C           21.68480821035330        1.21860300989772       27.33509657757013
C           23.05141604357727        1.04765855303061       26.67800569660054
C           25.15985847404041       -2.17403562056395       21.34477739812692
C           25.74642829375072       -3.12570540452988       20.47390799196772
C           25.69775889578969       -4.48681972447591       20.75858576204149
C           25.06120873491390       -4.88717240914929       21.91265775964096
C           24.44957995071628       -3.95846868869933       22.76757696218822
C           24.48447101733907       -2.61064187803331       22.48186519640428
F           17.01585959936448       -9.48231952001549       26.01584005759346
H           29.59755544139690        1.26049638466432       20.00086692806476
H           30.84960321847479        0.02132537738749       19.89158089415868
H           30.43055719825807        0.99319516365920       18.46335360677809
H           28.61741428098142       -1.05038432416134       19.83563690767800
H           30.07959271884717       -2.79492309874955       19.44880018279028
H           30.51163302807408       -3.14256177158289       17.75148315013473
H           31.38406238694913       -1.87471057830821       18.64559460012934
H           27.49950077872248        2.48316130832163       16.01480347471355
H           25.06256425150043        2.10479745493062       16.45666397597484
H           24.43788028028101        0.39220179593137       18.16244342390531
H           27.46327771539127       -2.42827377465909       17.70099031758482
H           27.21318206765822       -4.02118231671685       18.43402507471123
H           25.86292540070509       -3.82006957263550       16.36481100333559
H           24.78710681767903       -3.91684846585134       17.76608011315971
H           25.08654926605381       -2.36020997771023       16.98515822151925
H           24.88117777476358        1.15641592871741       20.55292237134224
H           23.97177420997118        0.29487611397305       21.80394938340494
H           25.44618596820070        3.06030099433883       21.96825473486473
H           24.37791188931687        2.33624838401891       23.17297583105826
H           26.01982467323806        2.80752267005793       23.61869188377709
H           27.74298112044052        0.11228213570126       21.71250429546167
H           27.32059898724838        1.63826635610650       20.93300447673830
H           27.97332932737621        1.63566171154123       22.57689794852556
H           26.67188711205180        0.47675062824529       24.40087422253600
H           26.21452315347087       -0.92106284807984       23.41450217079635
H           22.39730434446925       -0.37490736956412       25.17916721643039
H           23.54694616484074       -1.49287325167502       27.62575190515029
H           21.28500552276738       -4.04380220155716       27.49184516928408
H           18.76911238430752       -3.62716185318904       26.02270322942049
H           17.09939365398683       -4.77478803867769       26.42308764763849
H           16.84448143289234       -5.58404366521614       29.34981671217895
H           14.93271962925699       -6.04487798841513       27.62379735822216
H           14.50040659076880       -5.11956204120818       29.06716666951041
H           14.76887306824182       -4.29190935197666       27.52971699196914
H           16.18490612188443       -3.21070750546809       29.73126738916378
H           17.87740927446219       -3.35995545081743       29.25331684526876
H           16.68612014255335       -2.81418375039613       28.08519925625202
H           16.32581421771730       -7.79394393213185       23.28994167442808
H           17.64595581786569       -8.91636808105417       23.64281831954389
H           16.06092486717944      -10.80122279146648       23.84192133295812
H           15.77067305859762       -9.96581502278771       22.29137597621503
H            8.38240725740449       -5.27282541915202       24.20742539905758
H            8.03822607841351       -5.21329432081383       22.48050802836757
H            7.35054804876865       -6.51949050904147       23.45790328756429
H           10.20086206397927       -7.89774268166972       21.54514121772328
H            8.43526459927833       -8.01774310080907       21.74145559589345
H            9.15770243565478       -6.59645537531456       20.96544145772917
H            9.48260063484463       -9.13043928772150       25.38825490021998
H            8.07458652779807       -8.18575314813050       24.88850532336289
H            8.85985151294009       -9.29007810901320       23.74404953448820
H           10.83147052656608       -5.66651057366166       24.97466269398788
H            9.41792848295758       -6.27090186893035       25.85950855718753
H           10.96481339116375       -7.10315998231744       25.99528486366543
H           13.10137386733457       -9.44392264121125       25.40875247327308
H           14.54224352423663      -10.47030795785556       25.62769842030525
H           14.86546454411538       -8.33958292160697       26.82364703026162
H           14.52510660217876       -7.42472830034836       25.33486089110282
H           16.65076740597086       -7.96601367443069       28.54524266895567
H           18.05533474808112       -8.58267688170636       27.64987504586862
H           18.25896023415641       -7.22289139289679       28.73569497603576
H           20.69515636870449       -3.04670949851138       24.66939411313988
H           22.29810900497339       -2.91019669386168       25.42078213154523
H           20.74499401195887       -5.49447116534303       24.92409722101996
H           21.93066865415311       -4.39070895819359       22.94291715686795
H           22.56387476642739       -6.00047368065436       23.37568567073076
H           24.67107141527617       -6.15495156870462       24.56564784099498
H           25.47042084834873       -4.63747341877223       25.07622333059694
H           23.69951943718164       -4.13229760224445       26.64576666014692
H           24.17098912007244       -5.82876399662590       26.93503189864205
H           20.42767315504635        0.07968196484334       28.70069602732305
H           22.16428383029258        0.05515594522952       29.09930216015799
H           21.64598689781756        2.15395100528652       27.89157428168147
H           20.90546789030587        1.23523058355282       26.57208971826654
H           23.83840835397435        1.11287029383023       27.43397041627897
H           23.22379899016337        1.82262240362862       25.93217749576635
H           26.14001113844055       -5.21814200261158       20.09908646508631
H           25.01285103350350       -5.93988294966741       22.15452695832679
H           23.97588663247405       -1.92579252591218       23.14039185613031
