151
 energy: -221.322705154804 gnorm: 0.005892897334 xtb: 6.7.1 (edcfbbe)
C           29.03030759923131       -1.68961246266941       18.26919653512565
N           28.00405184832838        0.88382612788936       17.63535503718881
O           27.14637635118872       -1.73408517873747       16.69029657380472
C           27.54030788629302       -1.44254526936288       18.03194146890063
N           24.35465931114139       -1.32497371642664       19.08656053347043
O           25.53211307499167       -1.32360432218808       24.71223231092862
C           27.07261311802127       -3.10590771773794       16.37686989103793
N           23.39778031615198       -2.43220234440237       27.34152886973502
O           16.47681690843826       -9.24388127563581       21.84463528043294
C           27.20603421653755        0.02100718896706       18.24917084491126
N           22.68511241329437       -1.82047150347126       28.37967978911216
O           16.06943296822967       -4.41763950982598       26.51889192334166
C           27.77719612704259        2.17841955734087       17.75407439677108
N           19.31090827278321       -3.13511066762815       27.88439859265308
O           19.83637246904842       -4.70173856763869       29.41082058672031
C           26.73709943190751        2.69928126648089       18.50995433570815
N           17.30998560443131       -5.61678651438827       27.97356342967756
O           20.42751745731549       -4.88317586479788       25.48942721135667
C           25.90346483047572        1.80845837649065       19.15868762286175
N           15.63839299317129       -8.34201598152264       23.75077432598921
O           20.70102094416235       -1.33627729642964       29.32735510260385
C           26.11996832313926        0.43518825512567       19.03167729677658
N           11.48794563808022      -10.64165120111315       20.95019555955599
O           25.40097955974860       -3.35212765106185       25.65964681799557
C           25.21622400422396       -0.47356120704400       19.74541626275649
N           21.79443775024687       -3.47869945041678       23.48913303833612
C           24.09403811374451       -1.32660597601742       17.66836088331464
C           22.96405652862128       -0.36201464335156       17.31206192776165
C           25.03365266194110       -0.56862095337284       21.10698210630681
C           25.77359527291767        0.16027028133640       22.18193690520469
C           26.92471022586180       -0.63154236639708       22.84733119627690
C           27.69445927584824        0.31275340156758       23.77432207019114
C           27.86710289297091       -1.18630113750751       21.78061918612081
C           26.38986252407222       -1.81080477251999       23.66908373164587
C           25.11064167921189       -2.17804233922042       25.62453642373697
C           24.26021839759272       -1.46801105709119       26.66635539592595
C           21.34803559373984       -1.92182039421150       28.46493891336866
C           20.68021503807478       -2.89446720794494       27.48751855814262
C           18.99552679834192       -4.08602400055662       28.76827497606011
C           17.50301393792734       -4.43308799223003       28.81431392867058
C           17.01216316306681       -4.64691248823407       30.25566534693124
C           15.62707346246990       -5.28706674898851       30.27225185832841
C           16.99475216293048       -3.29533698177611       30.96746755965878
C           16.53188924656288       -5.49736851940566       26.88895074444737
C           16.16697782682780       -6.76514030296960       26.09373239891188
C           17.29960321798348       -7.22675417482899       25.17597764678713
C           16.88316972150313       -8.51313578853029       24.46717359361697
C           15.52292447302588       -8.80351475285758       22.49558238142729
C           14.19853531650476       -8.82189905922110       21.93076356695652
C           13.17037585267009       -9.03431513111127       21.34060792756165
C           11.91141277408451       -9.26737515225479       20.63679393306755
C           12.47761220624471      -11.65329811630308       20.63624885722449
C           10.19514117619952      -11.02256868783977       20.41964726602798
C           10.88371328907312       -8.26089258362458       21.17725801531476
C           12.16738334769627       -9.00129229153884       19.13878881292544
C           14.53085484288104       -7.85136960009549       24.53952587841421
C           14.90695684724894       -6.54917164140686       25.25153260307939
C           18.13569595856987       -6.76488471237296       28.29567356804851
C           20.70559905343412       -2.48348101702224       26.01737004919215
C           20.04263146018656       -3.56230341095440       25.13522200238797
C           20.36841351502556       -3.29126339607819       23.65996822828058
C           22.15229420591425       -4.85851646555242       23.76214976750327
C           21.79375310584399       -5.15762969570578       25.21553574823434
C           23.46896793311883       -1.12432738217556       29.38973104116232
C           24.35577051958716       -0.07173824162865       28.73052260538686
C           25.19948590585467       -0.73376151340291       27.64317734465495
C           23.98847029360615       -1.51710165525836       21.30210543088968
C           23.58635776986777       -1.96383344996079       20.01868261385849
C           22.57609136149971       -2.90845857732168       19.86899059838663
C           21.98048043805137       -3.40992023391650       21.00634172645429
C           22.35799345816998       -2.96373317269595       22.28117136834041
C           23.34004393220743       -2.00922838873342       22.43151970812553
F           15.85821176348164       -7.78633411945438       27.00757770603920
H           29.29245590786563       -1.38590866979125       19.27744787822512
H           29.27083358157054       -2.74223801778562       18.15011008326141
H           29.60238794761786       -1.10247040310888       17.55718469344736
H           26.94298600859005       -2.06299327635072       18.71919587276770
H           26.31621522749817       -3.60887446598957       16.99373345136641
H           26.78355032219692       -3.15383303919476       15.32849490029239
H           28.03417136995533       -3.61046387700670       16.50880997074972
H           28.46507105017789        2.82165170525174       17.22321170065041
H           26.58637843280231        3.76390725042818       18.58350047266320
H           25.07245017433986        2.15874657743285       19.75332310109816
H           25.00485828748884       -1.04264958768893       17.13746381807689
H           23.82417639399241       -2.34347131489830       17.37109169778026
H           22.05726868430043       -0.62475868688245       17.85198551674196
H           23.24260308686052        0.65584374211813       17.57471259854284
H           22.76521209657507       -0.40502436140814       16.24557812061113
H           26.20693603502225        1.06734271664008       21.75752060245036
H           25.06660057122615        0.44775560100536       22.96168466518702
H           28.49785475977576       -0.21997087311272       24.27523395258829
H           28.12786597815453        1.12943727641623       23.20357829653132
H           27.02984086948871        0.72735474700122       24.52636440463712
H           27.34686887324581       -1.89672172228257       21.14411122451896
H           28.23627620902492       -0.37311537170994       21.16081910516845
H           28.71447243916796       -1.68897926283883       22.23937468088686
H           27.21215252318546       -2.36856802770309       24.12889398524601
H           25.81822521507270       -2.50117242540217       23.04215395877764
H           23.62102567059193       -0.73587928894361       26.16248191536245
H           23.96681031750852       -3.20319582431035       27.69648403345732
H           21.20343956009584       -3.84984847310379       27.61747759986207
H           18.59191420688950       -2.55970006811076       27.47346107206307
H           16.91595978872641       -3.63474538377435       28.35147267390567
H           17.72424250210210       -5.29585283757272       30.77511325644085
H           14.92255135855084       -4.67391244591149       29.71033306419078
H           15.64566957851586       -6.27982080148004       29.82711536543972
H           15.27088439001580       -5.37480262564261       31.29536713782638
H           17.97264803852459       -2.82051087366368       30.90952837151328
H           16.26063036135193       -2.63511650885596       30.51166208884084
H           16.73759486627185       -3.42906374746859       32.01436253863495
H           17.48957362586623       -6.43133013968561       24.45490684664662
H           18.21567812120682       -7.40616454849085       25.73377759392298
H           16.75484249392754       -9.30711961266343       25.21293775208864
H           17.64224262687205       -8.82318188420236       23.74683038888739
H           13.45574737641769      -11.34192145778905       20.99837064710543
H           12.19751545954842      -12.57491531451215       21.14665423010288
H           12.55254583723493      -11.86771850765359       19.55932761140183
H            9.42976897083202      -10.32967386928698       20.75593142092413
H           10.17396418229673      -11.08218992056404       19.32076329577032
H            9.95486256278394      -12.01027546790169       20.81184493157777
H           10.00940080670818       -8.22053502538718       20.53455732185824
H           10.58388732850812       -8.54481303924651       22.18185109945898
H           11.33040610029947       -7.27021961082541       21.20920014976399
H           11.26728021798277       -9.20033542567776       18.56257637074461
H           12.45076848169915       -7.96214745919075       18.99675186475019
H           12.97481858161911       -9.63040696159386       18.77063075337540
H           13.67437755375598       -7.68941482977396       23.88474333766697
H           14.26388979396975       -8.60343105562144       25.29149903467944
H           14.08643893679966       -6.23869312241237       25.89813591817933
H           15.10149793820247       -5.75018724032136       24.53835855944721
H           18.41709559650206       -6.70407752306633       29.34249194976249
H           17.61619112057581       -7.70140169786493       28.13177496632012
H           19.05580171615834       -6.73843077208897       27.70658996038131
H           20.16688722587267       -1.54571410347733       25.88409722128559
H           21.73487616615671       -2.35579392514734       25.69086237027411
H           18.95664827836125       -3.56176545174522       25.28214732520330
H           20.11086726478244       -2.26321637863207       23.40277857157112
H           19.77341709322864       -3.97673994801899       23.03012588831333
H           21.62270720522879       -5.56282954125032       23.09563969272767
H           23.22819536925197       -4.97940377328561       23.62410401820870
H           22.44514338512362       -4.56425531757441       25.86745858644974
H           21.92721797542793       -6.21719126872840       25.43780771163621
H           22.76697504588435       -0.68151706416301       30.09580187737152
H           24.08634710021572       -1.86387748790075       29.91309585209914
H           24.99689459033452        0.38563648757183       29.48266035574238
H           23.72843609091401        0.70350870926858       28.28935351381195
H           25.88591031686814       -1.45725378841608       28.08999677576276
H           25.78298152710159        0.00825643225967       27.10004650676978
H           22.26386262031809       -3.25152786907662       18.89443338074661
H           21.20485333411824       -4.15659497056678       20.91575848245373
H           23.58119633690196       -1.66139606852839       23.42121725682656
