151
 energy: -221.331236387254 gnorm: 0.004636367734 xtb: 6.7.1 (edcfbbe)
C           27.61231136653663       -1.14909683581794       17.78233568002129
N           25.30817136898016       -0.29021920789154       16.45993231070614
O           26.30787322265963       -3.10532497794634       17.06570089060038
C           26.31570028498265       -1.94848645602065       17.90145950002088
N           23.48109288644646       -3.44742618455886       19.11733609900573
O           23.65735364828213       -0.62191362154859       24.14853405975061
C           27.10227832180260       -4.16935666990498       17.54085459679914
N           22.13878812476744       -1.64306760312531       27.20552272077394
O           19.30541994091865       -7.86604405831020       22.22311034956209
C           25.12479040060169       -1.10546412304681       17.48876200075710
N           21.09475882861338       -1.19548073967210       28.02148694720771
O           16.59506026160758       -5.65054200081113       26.95301432298193
C           24.31233947705302        0.47650361294600       16.05407482612812
N           18.83443214074338       -4.06125203308035       28.23157251925109
O           19.82603914759193       -5.16164183154601       29.93887158390296
C           23.06868774174541        0.49277672584014       16.66649997479328
N           17.53727591654507       -6.82525082743653       28.62696160170516
O           20.89448868284027       -5.85441727274437       26.62735407112363
C           22.86699364934112       -0.35614747544353       17.73880282174560
N           17.59332086709009       -7.74504533778142       23.70878720707234
O           19.08283224585690       -1.53818686319089       28.95647629075070
C           23.90114495595765       -1.18970155625390       18.16460998263932
N           17.68509237015020       -3.02034033898847       20.81996780462127
O           24.51122902325132       -1.84712926115340       25.82060075777278
C           23.63577373657053       -2.09070588525475       19.29388552585984
N           21.83829396508085       -4.76811914970006       24.22538561824241
C           23.43934551593479       -4.13731159391333       17.85189586733178
C           22.00689293697095       -4.23908797094303       17.33150899851596
C           23.38448927472990       -1.74521948646407       20.60270396929447
C           23.44336071902000       -0.37983029802663       21.20876675318917
C           24.71453264823074       -0.06025355144294       22.03162962273456
C           24.68267697267065        1.42047591962804       22.41924087912968
C           25.97076058661905       -0.34979338458489       21.21189436118130
C           24.78326275015520       -0.91305497284788       23.30420006679478
C           23.63895358719977       -1.14686238905418       25.35753956022765
C           22.40344183400174       -0.70011534592301       26.12239039176098
C           20.01466815348380       -1.95075482042628       28.27382600846063
C           20.02138473858544       -3.39265299726086       27.75131623689064
C           18.83725925755724       -4.90922886654373       29.26249164033938
C           17.49259050261352       -5.62257652596119       29.46201622162613
C           17.19680805662550       -5.87475665624316       30.94468085540782
C           15.97284139781000       -6.76697129871794       31.12802968313004
C           16.96882111279334       -4.51676786606642       31.61152297909195
C           17.01627299607332       -6.72159934636538       27.39949055099102
C           16.87806664839313       -7.99049668304401       26.53386428717554
C           18.21410162422081       -8.48598992640784       25.95563296629217
C           18.08119988212086       -8.86359470735454       24.48257917840063
C           18.26324733442936       -7.33218497793847       22.61967105824028
C           17.68259231659056       -6.22286237932586       21.91477143010825
C           17.25222684999846       -5.35235982600731       21.20049635644792
C           16.85227279713885       -4.17390273542084       20.43268090631192
C           17.46647814365423       -2.56981748673545       22.18240930428954
C           19.10230027257467       -3.20676825746616       20.56573173688661
C           17.03571766510467       -4.46943795295943       18.93474825009448
C           15.36700377150185       -3.87340905200320       20.68756445607702
C           16.43462471032008       -7.03647055206732       24.22411873766616
C           15.84219154430888       -7.76137321666858       25.42561810090415
C           18.34249350920172       -7.94154894610963       29.08146606197561
C           20.10271446893136       -3.54314016813072       26.23153084293254
C           20.06236025561116       -5.02851143028678       25.82545146942719
C           20.45603902878659       -5.18131590329737       24.35278560934991
C           22.69797098100565       -5.65401225195939       24.99131475255898
C           22.27681893334791       -5.57321085882190       26.45774581906867
C           21.24221599099639        0.13349034044217       28.59926533204752
C           21.44300826420157        1.15736984556206       27.48578189778119
C           22.63497776404921        0.73724345873517       26.62872025739959
C           23.01795505481737       -2.95217116552708       21.26635816278228
C           23.08867837844292       -3.99293242894946       20.30624456230508
C           22.76637796137601       -5.30482946673787       20.63688841451471
C           22.36368684883840       -5.57189793390209       21.92704134130879
C           22.26634731112918       -4.54742562099145       22.87909597950566
C           22.57877190743892       -3.24550597263603       22.55408094515131
F           16.35150494286960       -9.00060790998844       27.36066265943380
H           27.77294283178906       -0.88611250214862       16.74137201090921
H           27.53168737735623       -0.23960583262381       18.36936074021888
H           28.45584884548135       -1.72754184173603       18.14768241857709
H           26.17030981897225       -2.27699929878927       18.94292401538508
H           26.83386880438147       -4.42346672048352       18.57329841722081
H           26.89205982202735       -5.01453240258247       16.88934714458095
H           28.16855990969497       -3.93300069859774       17.49447128775345
H           24.53058040459736        1.10831293319496       15.20412586817858
H           22.28469127620376        1.14275118040260       16.31380859098083
H           21.91528523390130       -0.39266566085735       18.24869055980564
H           24.06707864483746       -3.60085666637340       17.13769434213494
H           23.85882311184448       -5.13664222538834       17.99295109006000
H           21.37959846981185       -4.74943701567290       18.05961971662319
H           21.59922015651824       -3.24643219016795       17.15640957986280
H           21.98850596264187       -4.79501689350814       16.39961615488130
H           23.37899608901290        0.35859904050370       20.40745834179051
H           22.58064098127603       -0.25260000840660       21.86562258304854
H           25.51997978726242        1.65986876534623       23.06983030760664
H           24.74842441566625        2.04238167418333       21.53091638055929
H           23.75956606006367        1.65518795408422       22.94169829127020
H           26.04353305150714       -1.41155888736916       20.99456680743849
H           25.93515642262000        0.19483707366477       20.27233528847295
H           26.86160301414349       -0.04864212805626       21.75630931480791
H           25.69900332168342       -0.70298336572728       23.86537714488336
H           24.76764587895098       -1.97923208793418       23.06217168818537
H           21.54261807668069       -0.71100927821534       25.44557289285125
H           22.99221420594387       -1.77743460715288       27.75080980241450
H           20.86821528070175       -3.89963685981150       28.22946032957054
H           17.97210935920874       -3.90118039266002       27.72941703867053
H           16.69183453060605       -4.99999472862847       29.05020756804860
H           18.07133540033161       -6.33688112291886       31.41082466230598
H           15.11674199280983       -6.33849214904814       30.61122900219918
H           16.14412540008454       -7.76548406504722       30.73809821423399
H           15.73307661140112       -6.84612073139694       32.18457433914332
H           17.75575230072999       -3.81646154975592       31.33668048293915
H           16.01386224465271       -4.09785478058049       31.30388954739772
H           16.96995795280645       -4.62448252228401       32.69249638716283
H           18.98090332581267       -7.71751061196157       26.06668321705722
H           18.52331606463745       -9.37199975488553       26.50924796568015
H           17.40257252960039       -9.71471711577824       24.36758913905457
H           19.05513889687695       -9.14043710403230       24.07159694252345
H           17.65843964028905       -3.35331760182145       22.93229280009346
H           18.13965159058413       -1.73738232733929       22.37612572280172
H           16.44732445977516       -2.21097383106420       22.29685466604757
H           19.54760052779798       -4.03135509424616       21.14436118707470
H           19.27205529514264       -3.39356001759293       19.50942720877535
H           19.62347825911941       -2.28863430132824       20.83189070189613
H           16.24794187593837       -5.13467416554972       18.59313030280265
H           16.98044960211798       -3.53760131696039       18.38090167916389
H           17.98823076211040       -4.95349149422142       18.73802818065493
H           15.13746846430905       -3.85492822981167       21.74881062404668
H           15.11609709065293       -2.91447217838917       20.24391203880787
H           14.75782475613052       -4.64641135611610       20.22728019973167
H           16.72203134008025       -6.02149485633277       24.52322601886896
H           15.67670170554843       -6.95736440788903       23.43872406820013
H           15.44779465566969       -8.73413638454053       25.13144158951928
H           15.02191605026842       -7.16281101177463       25.82220559167968
H           19.12094386964442       -8.17086165598740       28.35650316192893
H           18.83562657422009       -7.65390649070295       30.00489579873308
H           17.73071923853065       -8.82619033769116       29.25650152245461
H           19.25459777715660       -3.04183155840337       25.76513296122874
H           21.02873627120950       -3.10834772725519       25.86449964031669
H           19.05360889284162       -5.42388252280561       25.98612809728802
H           19.83299505750375       -4.54227761340747       23.72361380783007
H           20.30645595658689       -6.23058513629310       24.04097300427943
H           22.63281426920541       -6.70005808133798       24.64179744565173
H           23.72883433655949       -5.30916488147136       24.89188735198388
H           22.51475308986857       -4.57402356338150       26.83986899496839
H           22.79756972796974       -6.32193949692896       27.05648660174084
H           20.34326566160040        0.33533918923653       29.18053206435532
H           22.11039364753920        0.12397747576306       29.26721882236427
H           21.61605600697137        2.14017298540203       27.92123146140423
H           20.54282587079804        1.20193749252470       26.87179424628140
H           23.55017215639312        0.76270713956429       27.22558367780825
H           22.75667638538973        1.40574628198875       25.77784440921424
H           22.81661725467214       -6.10070961434248       19.90923667340667
H           22.08888700290597       -6.58141540187323       22.20021306072372
H           22.45135923333835       -2.48189213880168       23.30220541308195
