151
 energy: -221.320893089514 gnorm: 0.004864911594 xtb: 6.7.1 (edcfbbe)
C           29.75610011925694       -0.97302308636263       19.12598602109345
N           28.00926085970303        0.74862443929264       17.78274305161769
O           28.20356853863057       -2.31692304589865       17.77211750101801
C           28.31465606237364       -1.39957013037684       18.86049069537092
N           25.18360348570468       -2.45343533292915       19.24848970940424
O           24.75451060828323       -0.61959685002801       24.49726504068951
C           28.58637266049925       -3.63861038871752       18.07951518427719
N           22.23826540449434       -1.02641586362895       26.83400528771229
O           15.24701492709072       -7.69720039312692       21.38428116411958
C           27.44410880478645       -0.21310634111873       18.49457571737458
N           20.84933317861575       -0.85465377832765       26.89724161647851
O           16.47587147981600       -5.16733720577301       26.85796436800800
C           27.28731191275654        1.79712163244103       17.42600099612497
N           19.52478522342801       -4.14753778494986       27.34291274347467
O           20.61101917427535       -4.91086234435281       29.17423795669293
C           25.95204802705576        1.94999023670084       17.76336461174510
N           18.00543549706110       -6.51621685831049       27.81108402851426
O           22.47592472578053       -5.46058711853630       26.47498411635397
C           25.35406023470379        0.95057517798286       18.51063467361024
N           15.19185470486736       -8.20742065725765       23.59563972777692
O           18.79021986223623       -1.71486239790205       26.66218521184695
C           26.09892408708046       -0.16390381117582       18.88807250410408
N           10.08922096602750       -7.07887801413103       21.05556019109608
O           24.98349762200493       -0.10137135659612       26.67597651179959
C           25.50061960948857       -1.20510697597461       19.73224632067072
N           23.31002961609110       -4.67954950579750       23.93518211282247
C           25.09317683119492       -2.80067380608148       17.85274420364854
C           23.72509098738746       -2.43131358937318       17.28044238370299
C           25.22160736252516       -1.11551322072867       21.07727961503796
C           25.27765180796316        0.14871471168074       21.87985208887158
C           26.37813329352777        0.31485126537780       22.95393724237083
C           26.33108729773349        1.76237575128892       23.45622117231074
C           27.75343262943278        0.01381812489952       22.36394159964503
C           26.14290394914952       -0.61952959895349       24.15415791024266
C           24.30846399862308       -0.35180975567158       25.70272317007169
C           22.78627879662470       -0.33471794646156       25.66938288346195
C           20.00216521616620       -1.88545500240770       26.76787994674240
C           20.57784694231291       -3.30211630430402       26.82488695891073
C           19.59761306794548       -4.81733559992804       28.49927171472725
C           18.27023545214086       -5.51200377234520       28.83875006040738
C           18.23329763783112       -6.10901823864809       30.25367697004218
C           16.92300340422493       -6.86096000233238       30.47914521654514
C           18.37235820916122       -4.98918075211830       31.28302744387186
C           17.02428575117263       -6.26954911368604       26.93724869086003
C           16.52800631089668       -7.38211776125898       26.00258666306356
C           17.21052174661083       -7.29475961607997       24.63405383478968
C           16.62610916132201       -8.35240529687990       23.69762183898331
C           14.61131329166229       -7.90151280331462       22.42272744904674
C           13.17177664824306       -7.90231042362032       22.41647197872460
C           11.98433076081622       -8.01811395156752       22.24508783088113
C           10.54103617419155       -8.09518794114050       22.02105255199687
C           10.72391790878244       -7.20358300233904       19.75475288152193
C           10.19632870516745       -5.71668826040173       21.54557470751029
C           10.22828855513708       -9.50020948392759       21.47520038616655
C            9.81573165359234       -7.92816378370045       23.36476427514075
C           14.49263241654191       -8.31658149448534       24.85385080845674
C           15.00856278342979       -7.26457398213857       25.83807472301335
C           18.91895917788143       -7.64128864644833       27.78235977778471
C           21.00031676837618       -3.77608388681054       25.42816169098927
C           21.53824291851923       -5.21939362329668       25.43972296259127
C           22.17198252200414       -5.54932117281824       24.07352915635256
C           24.30873512765034       -4.94958724851553       24.94529269840351
C           23.68511655455340       -4.73336120279323       26.32595577480959
C           20.35995782706546        0.51642487921027       26.90664540509669
C           20.83330324906867        1.23106122523194       25.64516373490629
C           22.35532846334312        1.14271383652168       25.57565872605326
C           24.69600095821820       -2.38967587876173       21.45070655200604
C           24.66110067937613       -3.18755432433746       20.27892125223217
C           24.14087858235791       -4.47781539502516       20.30312899424267
C           23.68705332314835       -4.98756570746518       21.50176257324460
C           23.74421082617691       -4.22223665473434       22.67675509874459
C           24.22725896520011       -2.92833874069493       22.64265705760053
F           16.78122360531701       -8.63881801689831       26.56382273249757
H           30.16689287645412       -0.52065610232319       18.22927789097939
H           29.77374481784956       -0.24666791024313       19.93237110719308
H           30.36043286721780       -1.82913102869183       19.41238847467406
H           27.89574236325562       -1.87856652946556       19.76062812518026
H           28.35982196119400       -4.22735295287775       17.19356315632935
H           29.65479095590996       -3.71242766289876       18.29909153577093
H           28.01518152685865       -4.02012416436614       18.93429059326104
H           27.81316754606594        2.54594876059350       16.84994072318633
H           25.40171592063093        2.82365638624527       17.45404222605478
H           24.31627445162125        1.02154887888042       18.80371469935911
H           25.88580893281963       -2.27905371458032       17.31114967572166
H           25.26116468693369       -3.87547657448148       17.75542256710839
H           23.66226203791757       -2.73667035230314       16.24042955760759
H           22.93597796559853       -2.92687296031935       17.84172084931647
H           23.56864815573342       -1.35670856451588       17.33842628096795
H           25.40594164425114        0.97337814720099       21.17359834271788
H           24.30924766219912        0.27625574390420       22.37001185879581
H           27.10623808219966        1.93246532703336       24.19966642162552
H           26.48426760839149        2.45733754902629       22.63505033764351
H           25.36692788549433        1.97718093590700       23.91329049869987
H           28.53013196765903        0.15679867951859       23.11098468369886
H           27.79734983468987       -1.01220359181974       22.00835762166214
H           27.94970271651139        0.67668057739429       21.52511719024703
H           26.73102443207982       -0.30706676347793       25.02139759108536
H           26.40024987782374       -1.64760288692887       23.88783158991458
H           22.44824411181052       -0.86938348252370       24.77494335167433
H           22.67413149182706       -0.65639586093354       27.68079707188035
H           21.41812554153438       -3.35325218180580       27.52107814264579
H           18.61778164239673       -3.99977800468307       26.91395196369762
H           17.47263915032332       -4.76461529883277       28.74981890874525
H           19.08031281994306       -6.78976885901657       30.37063689600792
H           16.93505822860039       -7.34155232318043       31.45317131965337
H           16.08547425824103       -6.16724574971845       30.44627724616577
H           16.76158372218158       -7.62414717028105       29.72273416586897
H           18.30096860238640       -5.39922756471426       32.28658139918109
H           19.33473883564209       -4.49570117920660       31.18014724110006
H           17.58423441639933       -4.25049624607451       31.15292029675323
H           17.03012747767917       -6.29577882246016       24.23691400774369
H           18.28560345238277       -7.44485238372527       24.72772286057881
H           16.84630433564224       -9.34930045795573       24.09409370598898
H           17.04667490817945       -8.25674555764079       22.69524686714386
H           10.34559722071233       -6.41179069999789       19.11063996285116
H           11.82096021787422       -7.11837250858879       19.80061129838106
H           10.46332624479400       -8.15614120680684       19.30183489845474
H           11.22231756887997       -5.44137672049146       21.83629066845396
H            9.87338585442567       -5.04324597247911       20.75338050661317
H            9.53275651199275       -5.57269387100903       22.39463262368423
H           10.32463952372070      -10.23265779645518       22.27057013665388
H            9.21020054483857       -9.51232926184139       21.09831984881190
H           10.91233554271253       -9.77812660952188       20.67851094423263
H            8.74469792292956       -7.89059274945414       23.19049617907560
H           10.04214612000852       -8.77666932825710       24.00501844263728
H           10.13077274766349       -7.02589106030332       23.88118115637804
H           13.42488004725627       -8.17871789660212       24.68534954629697
H           14.66616477854900       -9.31488529938768       25.26958323157090
H           14.53271235311735       -7.40630148800350       26.80851992601580
H           14.78539093448536       -6.25677366377159       25.48889128166375
H           18.57870816554728       -8.44606732744807       28.43428960781625
H           19.02551476138796       -8.03122062835278       26.77506478315811
H           19.89433991287736       -7.29413164266816       28.12123385114683
H           20.13622635504372       -3.73677695544390       24.76411086569750
H           21.77381625483334       -3.11583148054535       25.04005794284576
H           20.72114398893319       -5.91470040545244       25.65959267208687
H           21.46049440422042       -5.35508237451217       23.27141232105225
H           22.45112296180537       -6.61782509729137       24.06411351703633
H           24.67281577468989       -5.99019467690915       24.86972871914474
H           25.15374312307013       -4.27378548040617       24.81553528466467
H           23.50975342481428       -3.66237578367069       26.48937664118926
H           24.34079957997855       -5.10993738528459       27.11273542333229
H           19.27276969215293        0.47244029537961       26.96307200414748
H           20.75442843321244        1.01325318619190       27.79813232070897
H           20.51307072261670        2.27127095847857       25.66511489371978
H           20.39177101007753        0.74723417861000       24.77237799467205
H           22.80226379596051        1.69471506708909       26.40604989253704
H           22.72182992840771        1.56591879378519       24.64040923740721
H           24.09516496425072       -5.07918213850046       19.40740721051660
H           23.28614732755661       -5.98947099990281       21.54140458354445
H           24.21275482023855       -2.35180709069833       23.54692508615512
