151
 energy: -221.320085657488 gnorm: 0.005478800561 xtb: 6.7.1 (edcfbbe)
C           31.07010628235021       -1.09168451180203       19.61682149081407
N           30.36855594228348        1.49181356236941       18.79338183804620
O           29.35746440864694       -1.24246589326933       17.86713822966017
C           29.63741519217447       -0.78120071829170       19.18853348934688
N           26.38159252769537       -0.44506422290583       19.05657408164188
O           25.89107508057665       -0.57495637943763       24.78394520723307
C           29.07901696762925       -2.62144159464242       17.77577214871810
N           23.03094527390713       -1.91119689795084       26.49450520320081
O           11.91469887010445       -9.80042702374450       22.33057625624799
C           29.37375332279654        0.71309462019100       19.18737561542871
N           21.83355065001069       -1.39457821773910       27.00335427929413
O           15.69200229476531       -5.35776042992116       24.59689027603986
C           30.19217741616479        2.80145858396331       18.76647384072110
N           19.17688094800803       -3.60839955703701       25.81819028268077
O           19.48676773960455       -5.24418400931757       27.34110837183757
C           29.01379762592114        3.41638039523890       19.15790094309313
N           16.78063907432403       -6.07354147808730       26.43801579400690
O           21.97020264741833       -5.15778548136722       24.26929061663876
C           27.96680012230768        2.61070697855274       19.57197340293482
N           13.17075845472871       -9.25235643828907       24.14094149563376
O           19.59749153639169       -1.36059338645361       27.08017999986022
C           28.12679231235487        1.22782424587893       19.57592581892898
N            7.69283050462745      -11.07176264347870       24.79690748798122
O           25.64681034438323       -2.51010474238996       25.88974025964413
C           27.03020117688956        0.34083469200430       19.98388478759852
N           23.21125766061551       -3.33727418398919       22.52887616240007
C           26.44032036064305       -0.25504232951897       17.62857770062337
C           25.51373802364393        0.87431210410122       17.18059237184197
C           26.55217125433778        0.09387350469566       21.25071304143698
C           26.90273484040747        0.86114611579230       22.48838816361209
C           27.82830496784951        0.19361048931820       23.53115538696173
C           28.18777936156628        1.24554396597600       24.58610659620697
C           29.10463057835080       -0.31902832279328       22.86487940372621
C           27.14363894303535       -0.99323721699779       24.21923148221468
C           25.22569926189325       -1.43000461574556       25.53961901629315
C           23.87154649995692       -0.85871401934677       25.92922507340494
C           20.62922434757447       -1.88497035261937       26.66845630736868
C           20.55422392589425       -3.14700767568157       25.80227959064957
C           18.73579647047918       -4.55578763841074       26.66208569416053
C           17.20748270033286       -4.70319791321533       26.71162597123515
C           16.68731582331604       -4.20179917871480       28.08008292064073
C           15.22404770660931       -4.59067141395605       28.28437867458278
C           16.83020927867316       -2.68387094804289       28.15797767409701
C           16.00260531938591       -6.27163626859892       25.36692388267113
C           15.35908983299359       -7.64543434736900       25.10671361927229
C           15.11946798922214       -7.85367880486007       23.60958383976446
C           14.39882369204516       -9.17845299304797       23.37971464585458
C           12.02689207531210       -9.63539558602600       23.54822220743565
C           10.92267079746670       -9.92837354040904       24.42503064187745
C            9.94687611074074      -10.37297335036825       24.97444121581419
C            8.82738952947782      -10.94190646919768       25.71988909678893
C            6.45699854419402      -11.52849120040725       25.39763228115575
C            7.98980202099313      -11.83263377693897       23.59939674154165
C            9.33070151742260      -12.27815607495315       26.31314044884380
C            8.48186605429011       -9.97372584034244       26.86185630908749
C           13.31579249937470       -9.04831637665177       25.56304492609446
C           14.01683988211670       -7.71734086143188       25.84751064514552
C           17.23486350661565       -7.11369814255198       27.33997770626671
C           21.01403804950798       -2.88431579300459       24.36712317910104
C           21.21590125122145       -4.18327534520834       23.56688751850272
C           21.89554298528721       -3.85677148787043       22.22527008734921
C           24.01011992890145       -4.35609066964834       23.18748611542264
C           23.31907402191259       -4.77230903904704       24.48429560718328
C           21.93737158302407       -0.28712963907467       27.94803605054074
C           22.72735521539989        0.85630358987632       27.32197423447521
C           24.09022625536006        0.32854303529130       26.88640618101185
C           25.55804862652505       -0.92060157466911       21.10171610964544
C           25.46834909917339       -1.21770220293553       19.71717814382408
C           24.57318076845910       -2.16975166321289       19.24257944808058
C           23.81104002938647       -2.87289404397314       20.15279596151069
C           23.91003232595991       -2.61535814904906       21.52661360452523
C           24.74608371903674       -1.61664472885129       21.98970174810028
F           16.16878789472048       -8.70034627920017       25.54035039594777
H           31.75822745666494       -0.65620288084321       18.89953534001067
H           31.25763853994695       -0.66457067961675       20.59666554772052
H           31.22675715390340       -2.16583083147420       19.66595211348756
H           28.92739452686688       -1.26209087324579       19.88027935422900
H           28.80334474859331       -2.80138106579511       16.73927447220855
H           29.95055437641421       -3.23065771849037       18.02994450042697
H           28.24472443440224       -2.89467285988720       18.43339607635401
H           31.04093373560534        3.37567592887980       18.42118121143982
H           28.91637577779228        4.48955117933058       19.13349591119490
H           27.02428564476131        3.03921067632730       19.88092299136212
H           27.47098691618689       -0.03204883942914       17.34370642343639
H           26.14881297067047       -1.19161656528399       17.14965690172924
H           25.53213526312503        0.95866140691715       16.09820146880786
H           24.49374364892191        0.67660737133453       17.50201413489086
H           25.83686353219580        1.82020481770098       17.60856772569310
H           27.39633842868982        1.78361483158320       22.17606637857196
H           25.97259276649090        1.12717093180598       22.99452905542796
H           28.70029793418004        0.78409363636725       25.42670642712037
H           28.84542288881659        1.99721687815514       24.15710953250555
H           27.29239973449389        1.73750324994724       24.95567819679943
H           29.57112116189566        0.48017171842123       22.29408100302372
H           29.81130171566206       -0.67168649584696       23.61167968853346
H           28.88105115764514       -1.13845208869808       22.18748934605203
H           27.77298143789979       -1.39918637928766       25.01755794189790
H           26.94459289441170       -1.79412770256257       23.50075217394015
H           23.38075426217430       -0.49151944573274       25.02014214606013
H           23.54890947959747       -2.41308277477753       27.21663147550098
H           21.16068345662066       -3.93691243671596       26.25688012947474
H           18.50659963765930       -2.95545969840211       25.43562661693436
H           16.75691970402699       -4.09687256507689       25.92046145059658
H           17.29790553431969       -4.64947907643439       28.87079888263872
H           14.63070010842284       -4.28182668696462       27.42644378615970
H           15.11042470577081       -5.66174339414108       28.41894365848811
H           14.83729574212249       -4.09392932974975       29.16985984606970
H           17.85606913424709       -2.36556428591847       27.99335886310813
H           16.19895799837479       -2.20683320111487       27.41184564104912
H           16.52200350992509       -2.33561071701474       29.13996403898060
H           14.53414138431267       -7.01488768306630       23.23599426049882
H           16.07665421958639       -7.86554565304739       23.08759385618207
H           15.05274804764880      -10.00226651172633       23.69028861636215
H           14.14516361088133       -9.30233607313748       22.32557952166579
H            6.15849558530017      -10.85918238982715       26.19920980468914
H            5.68505124022217      -11.50086144335541       24.62978215278402
H            6.51134577471147      -12.55749689208207       25.78456576826789
H            7.19203594781049      -11.65986532229636       22.87724940530283
H            8.92565871423420      -11.48750977978272       23.16356701333384
H            8.05940428511654      -12.91623270413644       23.77933783103799
H           10.15137977930887      -12.08582967459926       26.99820818483969
H            8.52888054655049      -12.77085945632241       26.85655162410441
H            9.68759864702310      -12.93761366419093       25.52537369750664
H            9.39207897526600       -9.68945430155564       27.38345616312738
H            8.01235923613946       -9.08033453398141       26.45845758287437
H            7.81193602046590      -10.44522906085222       27.57548515602635
H           12.32534137069772       -9.05155095819279       26.02145466787022
H           13.91063378120688       -9.86609785358916       25.98761362411627
H           14.16892986584807       -7.61657524505996       26.92165561647777
H           13.40660471520955       -6.88340432244413       25.49979401345340
H           17.78394206551886       -6.64804416991110       28.15064813676163
H           16.39861606452431       -7.68102753376411       27.74556964137792
H           17.91423629363923       -7.79758525439769       26.83189317493468
H           20.26970997670002       -2.27593645031841       23.85445556122276
H           21.95923101256594       -2.34742171887501       24.38362173347836
H           20.25212097437476       -4.67306133728763       23.39444273327322
H           21.32412661117834       -3.09609821760019       21.69267270484966
H           21.93126467491172       -4.77728159150558       21.61652842258587
H           24.14202976231555       -5.24038501085486       22.53424368236281
H           24.99582469043954       -3.95257955519926       23.42761556170161
H           23.37321102544264       -3.94572639393358       25.20142636080181
H           23.80596560977328       -5.65019740656504       24.91212036271117
H           20.92166496963160        0.01436780490251       28.20128222705994
H           22.44300911927595       -0.64836641123128       28.85022382345667
H           22.84041853703062        1.66101895212717       28.04656365627156
H           22.18474486487015        1.24046857398948       26.45720023747721
H           24.65572788605016       -0.00746353537132       27.75752270099640
H           24.66392396692841        1.09856957989643       26.37497143590972
H           24.48428440953810       -2.37761412761732       18.18676854150495
H           23.13530123941232       -3.63728308963528       19.79989098075168
H           24.74798953211061       -1.40549781705420       23.04273326651794
