151
 energy: -221.321673079347 gnorm: 0.004742446814 xtb: 6.7.1 (edcfbbe)
C           28.49368473234966       -2.54124794093830       18.23455236058171
N           28.09200212351476        0.13247773101519       17.64039143307769
O           26.25242212083154       -2.38310581699247       17.25980062393836
C           27.08585941523418       -1.95890376535347       18.33776885186267
N           24.06568186730738       -1.06486506708337       19.09896458984858
O           25.37488696450753       -1.00821485999257       24.73631705705744
C           25.69195870645730       -3.66683845564545       17.42223810924829
N           23.32223445048189       -2.01373188283993       27.45544023214134
O           12.64100370138856       -6.04862878854395       21.97198385832315
C           27.10704723605204       -0.44101782789746       18.31193822427380
N           22.43673658467634       -1.42169773549025       28.36395578346705
O           15.83006297913952       -4.54564074374393       27.45479942220314
C           28.16381819179133        1.45191940430201       17.59577391683817
N           19.53339261712357       -3.59634920586880       28.04142222546973
O           20.47395700003793       -5.49495995597654       28.81372500786738
C           27.25534840847203        2.28333630042844       18.23019816123002
N           17.62471282268791       -5.90841460086597       27.47209569086877
O           20.71638043502891       -5.00037860334358       25.55440918797736
C           26.21906793803290        1.69443177455442       18.93452217834121
N           14.37521617120819       -6.59459752176387       23.32969529205969
O           20.35939661848628       -1.30269146366409       29.22098688566393
C           26.12313421096419        0.30729920973478       18.98020323867884
N           13.99449413296011      -11.41433870379679       21.18533099146023
O           25.58048543428026       -2.77454735596714       26.10118026235357
C           25.05716595630299       -0.35476098994076       19.73906550368912
N           21.73222665525982       -3.37920320661617       23.52430483300302
C           23.68616371604537       -0.88548873578370       17.71966528783665
C           22.79621329424739        0.34513906513857       17.55245717931365
C           24.94102263379466       -0.47968473335664       21.10550437540456
C           25.71995028598576        0.27324201834263       22.13846076508664
C           26.85980787135417       -0.46316773213885       22.87779563044149
C           27.62206235440296        0.56431782018522       23.71930194682150
C           27.81244624217632       -1.11888287152552       21.87964069050807
C           26.31708763423613       -1.56023968630266       23.80152079104539
C           25.07169715282089       -1.71536134323182       25.80760369500383
C           24.02427498851385       -1.01204475518849       26.65753283552200
C           21.15908970454755       -1.82679504728744       28.45285924835315
C           20.76661512703970       -3.00868650073877       27.56709257388178
C           19.48049910395720       -4.82712925027769       28.56614778953246
C           18.05151364297281       -5.35613526068172       28.75979330030396
C           17.95829363907676       -6.37673247852535       29.90493349882252
C           16.54157868254196       -6.93346520420313       30.00626240490228
C           18.37118252248568       -5.70453166923569       31.21288908132592
C           16.53711338016844       -5.38461901823031       26.89483277478324
C           16.14976164421822       -5.83589428813599       25.47224202112921
C           15.18383206454014       -4.82584412394024       24.84636612996272
C           14.84705614440043       -5.22784321633141       23.41364070784624
C           13.34064398303024       -6.90133263324517       22.52295589114145
C           13.11370974104475       -8.30589759592348       22.30380518231253
C           12.84360574749187       -9.42889885047732       21.95791052053302
C           12.69279467449093      -10.82358654494691       21.54407735994533
C           14.96764094744339      -11.41301529353585       22.26209208985618
C           14.58919951707829      -10.85429529456578       19.98458475985549
C           12.05808609120899      -11.62531588289172       22.69306234989709
C           11.74020714893696      -10.86835275984802       20.33904060797692
C           15.22589163561746       -7.58158442171099       23.95169614465862
C           15.49015644158596       -7.21630149485987       25.41428138770456
C           18.52399695348819       -6.87545360274564       26.87227305317981
C           20.62374781195850       -2.59726814820544       26.09668074470665
C           20.10239141775035       -3.76033051989279       25.23487727621594
C           20.30730972609616       -3.45237841311495       23.74508608261377
C           22.35236826720381       -4.66498587387987       23.77868058922357
C           22.09732353217951       -5.05020695406165       25.23390867826294
C           22.98117738928438       -0.40910489402706       29.25761618666005
C           23.66742325986232        0.68694942082207       28.44717999401962
C           24.71209887104349        0.05855903635155       27.52670853119198
C           23.82611625724495       -1.34258418277893       21.32382390511740
C           23.29517164961592       -1.67040264064631       20.04977302600715
C           22.18949360946290       -2.50352836929381       19.91723122432170
C           21.64939949189835       -3.05739549741892       21.05718025486780
C           22.18445429765967       -2.76836796083010       22.32001441345986
C           23.24038906704342       -1.89210615474200       22.45955519427259
F           17.31120766625992       -5.84865628332842       24.68546682709585
H           28.93725254134235       -2.23878470263441       17.29168248512822
H           29.10254106068820       -2.16869932531662       19.05206551094521
H           28.45683149004005       -3.62600366818717       18.28620293212371
H           26.61668597394320       -2.28302004776982       19.28111666865505
H           25.01261784962031       -3.80266260623073       16.58377651822227
H           26.45420898546138       -4.45047472411873       17.40062266756509
H           25.13469923332678       -3.73320139978807       18.36445052098559
H           28.99468859276147        1.84920591553263       17.02945528191337
H           27.35362664407765        3.35504378487095       18.17436866010868
H           25.48182208971775        2.29853551283973       19.44314757992401
H           24.58956097379436       -0.78668618977242       17.11474606224098
H           23.15289926413776       -1.78061455025767       17.39448377213864
H           21.90943012046054        0.25675384457982       18.17606429182528
H           23.33681287005928        1.24320288224817       17.84137286680126
H           22.48979187376938        0.44146800021621       16.51525786842475
H           26.16888142095483        1.13972824615367       21.64907134880700
H           25.01719358928043        0.63373994381308       22.89234608216774
H           28.42729125847783        0.08330986662973       24.27244520293172
H           28.05578258048756        1.33006772083676       23.08014624252112
H           26.95327711155812        1.04418595761607       24.43099733830323
H           28.15063679821472       -0.38873571975741       21.14851035119595
H           28.68126991555318       -1.52781254345230       22.38918143190179
H           27.31290247007104       -1.92605986251514       21.35138229450060
H           27.13066972831177       -2.03227891477430       24.36227028814141
H           25.80443562450674       -2.33388805708216       23.22237952781849
H           23.29665258834112       -0.52787616763535       25.99777523789356
H           24.01122455928121       -2.58760620337981       27.94640993098528
H           21.52907745618579       -3.78639293067985       27.67314022720387
H           18.69470456666019       -3.04532592351150       27.93820687738842
H           17.37464533249467       -4.52337607560040       28.97636456424706
H           18.65992116459955       -7.19332294942193       29.70957102029871
H           15.83418217229280       -6.12808443931674       30.19339823258344
H           16.25155630415863       -7.43222399084328       29.08476303131513
H           16.47964351474671       -7.64837101960521       30.82164324105655
H           18.27262837238863       -6.40524405689183       32.03696068380303
H           19.40704253339278       -5.37873306921335       31.15987638046238
H           17.74395512596447       -4.83904465109934       31.41387728324574
H           14.28840267152202       -4.78376132528503       25.46547007722683
H           15.63799954666047       -3.83466337178599       24.84490161556699
H           15.74570998694896       -5.12709569525542       22.79152963696158
H           14.06478757845808       -4.58335065739861       23.00827296888268
H           15.33160757630684      -10.40391269553169       22.50607423839714
H           14.54736472334557      -11.86411231617389       23.15481604025034
H           15.81731233997149      -12.01779528581176       21.94792771002199
H           13.97461614168732      -11.08190804863990       19.11835947362469
H           14.73552258868014       -9.76484402351334       20.04699585937185
H           15.56110084788325      -11.32200864665493       19.83775605498865
H           12.54878615827626      -11.42946164548358       23.64195461551409
H           11.01284840390178      -11.34883502895789       22.79652694696666
H           12.12722713873239      -12.68388308162031       22.46193263807634
H           10.73445049921087      -10.61531770799438       20.66286831232159
H           12.03195393356512      -10.15277458071212       19.57522978626144
H           11.73838621389021      -11.86977845735836       19.91877921061349
H           14.73853908258965       -8.55519049902509       23.89226934516349
H           16.18388063190118       -7.62556085452935       23.41814360576515
H           16.11492490141810       -7.98679348564382       25.86064972192074
H           14.55445633333869       -7.16388405493931       25.96982414692010
H           17.98232864408536       -7.62690899577077       26.30951254439731
H           19.24292334562150       -6.38486665110681       26.21447597759071
H           19.08015450906158       -7.36358213501956       27.66718790119315
H           19.92749861737030       -1.76255050272118       26.01258386259061
H           21.59597750242523       -2.29253679693224       25.71544398149931
H           19.03925838688598       -3.93244541715272       25.43177689713592
H           19.85431434887603       -2.49300837315312       23.49234163358846
H           19.81660057212315       -4.24897199228639       23.15813022889329
H           21.94790776755137       -5.45067292620587       23.11120026165509
H           23.42781581235425       -4.58467080457932       23.61158403876462
H           22.67040307559923       -4.38520943663963       25.88981967242072
H           22.39409377494783       -6.08272556277992       25.42248067751009
H           22.14976397344937       -0.01941263034948       29.84466855501606
H           23.70144554246500       -0.88980751808817       29.92968261679019
H           24.13832513837637        1.39643084868953       29.12616368461526
H           22.92291076446892        1.21704852640147       27.85199854272495
H           25.49881086176880       -0.41311545910360       28.12033809412126
H           25.16499179153440        0.81330906759537       26.88548206176704
H           21.77386972478651       -2.73600305337068       18.94857288351734
H           20.80957925118327       -3.73200303535086       20.98028369058095
H           23.59462004558494       -1.66374368278016       23.44946675860274
