151
 energy: -221.324984079054 gnorm: 0.004620405311 xtb: 6.7.1 (edcfbbe)
C           28.50592097093900       -2.65592885834369       18.30286417275187
N           28.02361374250970        0.01082681976344       17.45800031273686
O           26.68007475636042       -2.43085015420191       16.66281452534934
C           27.10211966926816       -2.13739173928697       17.99496061878035
N           24.11399165366910       -1.48932322038472       18.95574215865511
O           25.14053523063724       -0.92635148999619       24.63031421683795
C           26.47412239700227       -3.79808847140308       16.38043214325324
N           23.01515045467456       -2.04343850212807       27.28299469558697
O           17.13029253473887       -7.29075475258535       21.81881483679457
C           27.05502550957690       -0.62386933913370       18.10149978382194
N           22.14292245489282       -1.47206440477205       28.21596698351888
O           15.99422881880163       -5.21155978659346       26.84108889217683
C           28.05870695591488        1.33090770403880       17.47047655156268
N           19.11568252557772       -3.47913665224401       27.83765617216536
O           19.86991657059516       -4.86030695305257       29.44716032227534
C           27.11989207678792        2.10561131114575       18.13354032180599
N           17.33201669177893       -6.11528528339878       28.41350413222547
O           20.71017357635008       -5.15109722135762       25.55197728140272
C           26.10562517584913        1.45365667209944       18.81013199674172
N           16.44399603820128       -8.38001397369144       23.68787388017595
O           20.08262474629345       -1.34560232833885       29.10865554688108
C           26.05196942633893        0.05976201156917       18.80777029809481
N           11.98703000733062       -9.27059991191642       20.54378386298908
O           25.17917442809642       -2.81527830878050       25.83413214909064
C           25.00611454793184       -0.63192436010013       19.56681769252839
N           21.71186384439047       -3.53595263813170       23.48302405672812
C           23.80963682021374       -1.49198815226066       17.54567153970268
C           22.85745491204734       -0.35055587273360       17.19053473241864
C           24.80554896874896       -0.62118054314339       20.93035773354088
C           25.46601557882798        0.25395687405050       21.94972877191587
C           26.61913558000551       -0.35959808652049       22.77482130189956
C           27.25934898407988        0.75577524403653       23.60636780918978
C           27.66091352294260       -0.97911070382301       21.84394661806315
C           26.11451712387221       -1.45836012499640       23.71775532270425
C           24.74196269572754       -1.70577577003155       25.61852457646033
C           23.69230577331662       -1.02465243722197       26.48419363324743
C           20.86074156881216       -1.85829771084944       28.31117477358651
C           20.42769709207282       -3.03279820639464       27.42602070751295
C           18.94024453678658       -4.36925078650670       28.81754799117589
C           17.48244053941940       -4.79647846311107       29.03138068905650
C           17.11102976899877       -4.71823501864606       30.51868982501073
C           15.71456404121710       -5.27708824792751       30.76956258797586
C           17.18655434072532       -3.24769875935288       30.93339923336573
C           16.61834996861337       -6.18046930568314       27.28388050366908
C           16.64253796864135       -7.43521821637593       26.39595512402643
C           17.74637656826496       -7.18344741014895       25.35714652408952
C           17.74798171369457       -8.29068681950862       24.30674700398583
C           16.23740427683643       -7.83082245513003       22.47726196923907
C           14.91538161479475       -7.96459386158614       21.92196174129795
C           13.94589631371725       -8.05034335554051       21.21075821449746
C           12.77588555574997       -8.04926370434960       20.33866035174186
C           10.76504671267013       -9.32883922346539       19.76662632570913
C           11.73027682184998       -9.59794718807183       21.92987898704331
C           12.00760375784218       -6.73838612192415       20.61392191365858
C           13.33558953731026       -8.03578707000152       18.90275804317899
C           15.39428425169808       -8.72385994922038       24.61721179103891
C           15.28801976758565       -7.65744340393495       25.71415226043415
C           18.11195390566438       -7.20206429712693       28.97249964557189
C           20.40825672671520       -2.73147233408443       25.92984917253226
C           20.02194478933682       -3.98478947322076       25.12177555415464
C           20.28757422640414       -3.75269216156507       23.62787189195655
C           22.43309126655394       -4.74130906101673       23.86110129790185
C           22.10839843304642       -5.08659229758345       25.31293599729063
C           22.71318963549975       -0.48574648799586       29.12215104134658
C           23.34816929109608        0.64365454894912       28.31601650404530
C           24.37235266841054        0.05838634209489       27.34452658547152
C           23.74798580469425       -1.54586340605135       21.17904629886325
C           23.32761407794573       -2.04942554768267       19.92262837376944
C           22.29654252497734       -2.97816494811489       19.82748775468350
C           21.73772959456765       -3.45656400778928       20.99301182265866
C           22.17174409101387       -2.99727887482912       22.24465013265043
C           23.13726482159516       -2.01697491189529       22.33775601400113
F           16.93599249435738       -8.60829555304216       27.09445979377060
H           28.78711992823936       -2.35411493577451       19.30682189620730
H           28.53268755370707       -3.74040625583313       18.24209455203923
H           29.20674066144513       -2.23179427149220       17.59112355486957
H           26.38375906274678       -2.58809593619101       18.69927622533924
H           25.92258388627117       -3.82579932313642       15.44276889445293
H           27.41937407176145       -4.33381334319173       16.25845020505412
H           25.88336759635694       -4.27667868371361       17.16901981551258
H           28.87816809583724        1.77601573090855       16.92336035077834
H           27.18139561124454        3.18143599188295       18.11651828796528
H           25.33945475641341        2.01117293216179       19.32862704932574
H           24.73477723342848       -1.39450949773551       16.97488215294778
H           23.35206807953384       -2.45239471046579       17.29934852859536
H           21.97086863273766       -0.39026180180284       17.81968865738919
H           23.34780471774300        0.60852188614151       17.33952021177426
H           22.55560204421254       -0.43022751377610       16.15090896215802
H           25.87272265288263        1.12891172422939       21.44135249175104
H           24.69821375414220        0.59173202387419       22.64882696235529
H           27.68672572476862        1.51397391884662       22.95604186274320
H           26.51449570876415        1.22429126532037       24.24418223764786
H           28.05149512734604        0.35598828804654       24.23455237428646
H           27.22516619187155       -1.79963623742507       21.27921384815344
H           28.02173512519161       -0.23303992631382       21.14047940362178
H           28.50679014245108       -1.35792501026421       22.41198113658071
H           26.93971687518863       -1.87895280495806       24.29928313536229
H           25.64911325685644       -2.26906081837973       23.15081188719585
H           22.94717553802081       -0.55299125900018       25.83431792113700
H           23.71570852830667       -2.62067065014573       27.75210587730222
H           21.11473638545036       -3.85979833038819       27.63902703185879
H           18.31841335773720       -3.01412755401250       27.43126998165272
H           16.81548738615843       -4.13341651886239       28.47255886114904
H           17.84656110975928       -5.28127558109250       31.10027416630870
H           15.68184419549469       -6.34782903773884       30.58792198349320
H           15.42327735049853       -5.09203219081323       31.79979173493708
H           14.99389318868390       -4.79376118315168       30.11311100818988
H           16.43107852670810       -2.66847962735843       30.40733553606025
H           17.01787494340749       -3.14730628410905       32.00189528247506
H           18.16339763809045       -2.82710002842388       30.69887047267208
H           17.53330318694944       -6.22686182251930       24.87616458619546
H           18.72138222388698       -7.11222783969872       25.84110220231817
H           17.97452421230401       -9.25201256373342       24.77773866206426
H           18.48439821944625       -8.07790398186208       23.52907724220488
H           10.97139629106020       -9.09210886198613       18.72820457114952
H           10.38669789685142      -10.34892853606173       19.81303200464241
H            9.98111380257154       -8.65593166783655       20.14148124678847
H           11.23139971825172      -10.56602441076126       21.96355837921878
H           12.67568594634896       -9.67682582513452       22.46459121876078
H           11.08971634382628       -8.86496147350499       22.44553466588172
H           11.22016510677256       -6.60636038282653       19.87803329339437
H           11.57060387030413       -6.75120117726289       21.60969951672854
H           12.69127961909973       -5.89577704016694       20.55064259679756
H           12.57816571989673       -7.72547366419938       18.18927620044788
H           14.16879908304179       -7.33952530146900       18.84389044303320
H           13.69087058074606       -9.02893973945883       18.64352505607615
H           14.44752954556626       -8.80672673663370       24.08219238433720
H           15.64007054680213       -9.68921084463621       25.06999101590133
H           14.56546323191470       -7.97737782298653       26.46559829806498
H           14.96046737784266       -6.70520920303880       25.29729609218717
H           17.46242656214540       -7.98084135310586       29.37107063411074
H           18.77526309433564       -7.63716493230486       28.22590845735825
H           18.73078324279889       -6.80342971435755       29.77042822710828
H           19.68489960142489       -1.94397930132215       25.72022425717153
H           21.39396663079364       -2.40621665060890       25.60722138171261
H           18.96616268695475       -4.22804262336611       25.28055806242677
H           19.75185137263322       -2.87156253048439       23.27599820352287
H           19.92963892497171       -4.63712230487391       23.07180490753856
H           22.16205143309708       -5.58861211652967       23.20522117096387
H           23.50554056789239       -4.55760210848792       23.77342198832195
H           22.57797188339927       -4.34478707970917       25.96881397053110
H           22.48812272876589       -6.07835808825826       25.56274938890541
H           21.90627649090494       -0.12677758100480       29.76066659641264
H           23.46899237963479       -0.98194489596572       29.74137189595011
H           23.83014130760093        1.34628388916099       28.99420539308215
H           22.57061321828252        1.17194048142671       27.76284469594366
H           25.19809097037413       -0.39061677381957       27.90174891203115
H           24.77337735902163        0.83458241680328       26.69449222156038
H           21.95034538482760       -3.34331032273019       18.87251642345828
H           20.95911888113427       -4.20362676337448       20.94300742142840
H           23.40676828267885       -1.64809304467017       23.31128548693872
