151
 energy: -221.328911627672 gnorm: 0.004675201557 xtb: 6.7.1 (edcfbbe)
C           28.65905857960850       -1.95894111751498       18.25251056496938
N           27.27167321967674        0.32348915414731       17.29361910249816
O           26.73394545112889       -2.69033633896472       16.90100923879474
C           27.14296210181361       -1.95720458361533       18.05862987737626
N           23.95967741989818       -2.12212672507863       19.11698828163579
O           25.03284471679769       -0.91220263651529       24.64462607677187
C           27.20839295075737       -2.23268317099121       15.64969337715782
N           23.16658388467016       -1.89259027158258       27.50427385125603
O           17.05019880212604       -8.07825913915469       21.57596620833163
C           26.60076541607870       -0.53897636184823       18.04658750063207
N           22.28368754113824       -1.30468004327134       28.41495758145431
O           16.59564356764481       -4.67237843542722       27.11386541138765
C           26.88600022427736        1.58554629424368       17.23628302296333
N           19.41323191307585       -3.53275457131280       28.25578063978696
O           20.34827462472874       -5.10896593973135       29.56996149381716
C           25.80598427044938        2.07547083313211       17.95189457649136
N           17.67095117574864       -6.13856250353066       28.44915818566956
O           20.47821450611222       -5.24212989646832       25.99380784245286
C           25.08745569486729        1.18299417666949       18.72593587494486
N           16.15576060138027       -7.88720921924295       23.65491835751989
O           20.21889658910789       -1.21586316194176       29.29995069970566
C           25.46576542981312       -0.15975545559838       18.77900078620688
N           12.68008829228366       -8.75065162271145       19.13505006147453
O           25.42332431668667       -2.56302159673474       26.10790063508929
C           24.68391247524307       -1.06660834320274       19.62625730295977
N           21.71949201045220       -3.97048766789700       23.82624216580750
C           23.70068559021498       -2.35758934627230       17.71770115296918
C           22.72135886903099       -1.32768877055603       17.15557274990012
C           24.50551423220244       -0.97632006556103       20.98988581847477
C           25.07353421278624        0.05627802868681       21.91012164118070
C           26.34822084161817       -0.34526424990531       22.68724541458645
C           26.89923278116920        0.90234393067619       23.38414317816233
C           27.39992328994215       -0.91452364553847       21.73683861395223
C           26.03216578597217       -1.41068876991815       23.74288746773663
C           24.81389273144011       -1.57570632357502       25.76078876824093
C           23.72843506727466       -0.90803361583002       26.58836417088434
C           21.02607043130305       -1.75082492822394       28.54707734618312
C           20.66544276534661       -3.01290586677044       27.75783388828462
C           19.35663425568912       -4.55738964408368       29.10853720706840
C           17.93355478942858       -5.04869495377133       29.39244912231888
C           17.75591128122511       -5.42040101147872       30.87095803416419
C           16.41152822965612       -6.09768839543572       31.11145641913631
C           17.87292596208723       -4.13712951966139       31.69292698241008
C           16.98287685411225       -5.82038663814883       27.34286533183475
C           16.63218858772188       -6.90964766600703       26.31707993880717
C           17.77650749552321       -7.10228184130559       25.31960242671725
C           17.40433973111125       -8.19105095465024       24.31813867609159
C           16.06943233691968       -7.93600164886463       22.31318808378978
C           14.73944471006754       -7.90073730980827       21.76807771419562
C           13.67320046121983       -8.03801266495982       21.22243140472739
C           12.42309476659758       -8.33446277110560       20.52419489039835
C           13.53768860435865       -9.91861631629314       19.02811503883672
C           13.17996977170249       -7.68751199740247       18.28246019988812
C           11.72225122832502       -9.47688271597526       21.28258452467263
C           11.50508444568591       -7.10373317115399       20.55844712604505
C           15.03280814201742       -7.65087020383036       24.53297089893634
C           15.35900116233939       -6.54924864132947       25.54524692901149
C           18.45801835433688       -7.34600120759875       28.61711497502845
C           20.57465578814993       -2.77771180972885       26.24899026156753
C           19.99367588679641       -3.99743577251844       25.50712095441159
C           20.28589038691793       -3.86386730635881       24.00525244256758
C           22.16577772954188       -5.29032664948517       24.23140848875913
C           21.85382925753624       -5.45211741331340       25.71841962982364
C           22.78713273695008       -0.18048415031178       29.19122465935141
C           23.28347259508759        0.90879027024968       28.24544023683603
C           24.33299720349673        0.31413132610004       27.30860720845619
C           23.62037512116708       -2.03529955638504       21.34503212453773
C           23.29392934007398       -2.72109836511501       20.14736566020234
C           22.43076299498141       -3.81292651874789       20.15470964447925
C           21.90871168116398       -4.22200192288988       21.36058859600806
C           22.21807700777190       -3.55008951195580       22.55287894967121
C           23.05440146625876       -2.45543672672354       22.54782460742310
F           16.36994396455122       -8.12261164801531       26.96846072239179
H           29.12958791141231       -1.29656263473481       17.53244724921205
H           28.89454183622125       -1.61174470193942       19.25330228621161
H           29.03822375769217       -2.96959995496192       18.12677940253002
H           26.66649645088156       -2.51501602972394       18.87299826502497
H           26.88113309778572       -1.20808098903056       15.44863168584981
H           28.29744252431925       -2.27874592837563       15.58878846594952
H           26.77402842424568       -2.90878346915139       14.91565512438297
H           27.47676877970568        2.22126069551811       16.59146441245122
H           25.53567591355075        3.11707548493576       17.89912964632346
H           24.21955988531021        1.50797267777498       19.28133519983355
H           24.64072059785419       -2.33030887782552       17.16509766747235
H           23.28381893264345       -3.36035185384441       17.62111139824652
H           22.46345113059274       -1.58266303077111       16.13238137807449
H           21.81271604992572       -1.30735494638466       17.75336149244488
H           23.16639440744175       -0.33537638166462       17.16533800579147
H           25.32144914553806        0.94433524366788       21.32747261242869
H           24.30806626182190        0.32646501166449       22.63917085020415
H           27.77426138168302        0.65198892817802       23.97685005474438
H           27.18445486267203        1.64801980437216       22.64814344101913
H           26.14671061243480        1.33058758470577       24.03934648508825
H           28.31934750743642       -1.13522565524588       22.27312849098359
H           27.04049458572607       -1.83021868317070       21.27479148386178
H           27.61790630711014       -0.19452814926550       20.95248729853019
H           26.92638967115000       -1.66964144906063       24.31934801219750
H           25.64932617337800       -2.32309318179177       23.27597202059498
H           22.92956284477381       -0.56964458809781       25.91977209927172
H           23.92523154397626       -2.37707531750013       27.99080716739945
H           21.42096827156252       -3.77241354336923       27.98523636421262
H           18.56676930631341       -3.07787354291891       27.94861940718201
H           17.21832330548130       -4.25918063320600       29.14437823117289
H           18.56997133334999       -6.08476222862510       31.17473094331311
H           15.60263510195500       -5.45039734063316       30.77981689229116
H           16.34279519839508       -7.03820552353914       30.57229172520973
H           16.28255263278164       -6.29602509231632       32.17185989698443
H           17.05548498641207       -3.45832508253493       31.46050147717290
H           17.84355648047101       -4.36685006278029       32.75430348749015
H           18.81132509999234       -3.62976148677399       31.47649694924976
H           17.93012386585019       -6.15237976170106       24.80764295626420
H           18.70263310663833       -7.36594753120256       25.82550967271600
H           17.29868675967725       -9.14685678819162       24.84512523135380
H           18.17479285650399       -8.29085139270612       23.55094032462554
H           13.63770877482987      -10.17195692168677       17.97430500486281
H           14.54479167521124       -9.75185944447141       19.44101069366238
H           13.08429711065615      -10.76553146567528       19.53481043558960
H           14.13849020663405       -7.27234163144494       18.63085430288814
H           13.32663010531876       -8.09549617493278       17.28394786218374
H           12.44796141761275       -6.88804174234105       18.21141426767113
H           12.41127907231866      -10.28495206818237       21.51127429055965
H           11.32105832739821       -9.10433394940752       22.22071889824421
H           10.90948627460488       -9.85692523621059       20.67075697272266
H           11.16028244390695       -6.93597175952199       21.57498874693964
H           12.02343314502715       -6.20866233807579       20.22805343307708
H           10.64690850680420       -7.28469584820027       19.91807135632247
H           14.17018839229535       -7.36056518179782       23.93271447930470
H           14.79661726152070       -8.57422081725188       25.07385312398580
H           14.52960468409652       -6.44061458248770       26.24358726184676
H           15.51783776657285       -5.59285345064293       25.04927596900024
H           17.86298793637944       -8.23880105734485       28.45569644509583
H           19.31235491574400       -7.33831375129329       27.93715798031155
H           18.84662876663734       -7.36514303541177       29.62942258394319
H           19.92778450626596       -1.92321717223829       26.04946528709343
H           21.56994559590649       -2.57794280769064       25.85834228737914
H           18.91209134674522       -4.05520844023532       25.67407481836684
H           19.95101542357382       -2.88992325551152       23.64686952331537
H           19.73628802656873       -4.65160617596705       23.45848737727381
H           21.66464792255151       -6.09244307306428       23.65973431724545
H           23.24300010336220       -5.36503211684245       24.07626444413178
H           22.47321675686964       -4.75020177927794       26.28836764056817
H           22.06398126280189       -6.46920579538227       26.05229078041967
H           21.97036044535919        0.16630335448016       29.82289253505639
H           23.60802302420726       -0.53792731884478       29.82183553618493
H           23.70978496439016        1.72790374468946       28.82234093589354
H           22.44297403049818        1.29184927930894       27.66523373703446
H           25.20721409737371       -0.00197333708843       27.88251998330998
H           24.64948425274476        1.04653044991473       26.56776690647424
H           22.17524517802806       -4.33763174986134       19.24646232119882
H           21.24335010260675       -5.07340629240632       21.39244550763906
H           23.25147256949966       -1.94440866038192       23.47478965962590
