151
 energy: -221.315646579329 gnorm: 0.009894320134 xtb: 6.7.1 (edcfbbe)
C           29.71378291366104       -0.09356052742588       18.25808341343293
N           27.64386948159096        1.46094149297601       17.36095056424435
O           28.01806345592447       -1.72933113475371       17.59771154742474
C           28.28887233281261       -0.61267006984029       18.44325606519413
N           25.18743132695321       -1.96614301813655       18.97065621906775
O           25.04353501030993       -0.21858689663775       24.46561008421641
C           28.49211902933318       -2.96203944542831       18.09393575580303
N           22.83717912767695       -1.76393754844737       26.82868957865599
O           14.56092892215611      -11.00311702558903       23.32378218588007
C           27.25553315504711        0.45280544547938       18.12706872526873
N           21.56165838269170       -1.50967483219487       27.33607460900403
O           16.51785478262898       -5.51837460112268       26.01729994704813
C           26.79019558838865        2.43186671080527       17.08882440039088
N           19.64429150445807       -4.58871931487466       27.00586377121130
O           19.99239580451338       -5.01214005057230       29.20156603828451
C           25.49054366647901        2.46040729486574       17.56766695770039
N           17.26089746613528       -6.33831326614508       27.97652288323255
O           22.90077769869289       -5.75061915333188       26.00397880562067
C           25.07287816433733        1.40686805189162       18.36040938746359
N           14.17300518584113       -9.49996490883311       24.98187169260913
O           19.43222596218281       -2.12113266963004       27.65523799336987
C           25.95725562385223        0.36975914303758       18.64918210218260
N           12.06168997549289       -6.61820276611096       20.99998818779450
O           25.45690490869561       -1.71298156686016       26.08391148984485
C           25.50298319405944       -0.73727977477153       19.50150409461980
N           23.54577877978673       -4.48255398738201       23.59622286667367
C           25.04106218282236       -2.26326162281428       17.56843931287431
C           23.63746303178180       -1.92044682061213       17.07204863302428
C           25.28456280871578       -0.72221235047968       20.86084662568975
C           25.37593763828600        0.49218288035438       21.73457465531720
C           26.54490795801257        0.58750721794659       22.74241431269595
C           26.58306804631942        2.01478797831840       23.29813679966416
C           27.87270967513404        0.26308040192966       22.06224507994614
C           26.35816340869337       -0.38572064672199       23.91126290671680
C           24.70569112468955       -0.96429045147536       25.49829369211960
C           23.25024876059790       -0.73694328713333       25.87599275068638
C           20.56018217361033       -2.40301169992409       27.26542510715222
C           20.86794472310086       -3.83818014411552       26.79090901628937
C           19.23015271309467       -4.86528429161063       28.25575089058200
C           17.70929830522289       -5.01141270675943       28.38401666543245
C           17.21716581868418       -4.65514777433810       29.79873052503253
C           15.70438269889518       -4.83673060195511       29.89268365954851
C           17.58880523637665       -3.20883142615855       30.11502315439100
C           16.53832194434122       -6.42554204766129       26.85096716291384
C           15.61766488213612       -7.64377908799541       26.64280060140701
C           16.28822078974262       -8.86935267439792       26.01991518682919
C           15.25076840722823       -9.97900505017925       25.81540398692541
C           13.97222432328257      -10.00853440854915       23.75048209417400
C           13.02548450524682       -9.28790944751189       22.93961244272565
C           12.35957077361991       -8.70577969255636       22.12226967988677
C           11.48322567455504       -7.95432362701977       21.23149448416113
C           12.65276901226086       -5.99664512862903       22.16738976149805
C           11.17386815916719       -5.69268269182340       20.32384362305346
C           11.43074886378447       -8.71937936453551       19.89857009861487
C           10.08572756359755       -7.93185259775486       21.88720667255333
C           13.47159270948368       -8.36413241134016       25.53075997823438
C           14.43539777248996       -7.20429442527439       25.77119106153683
C           17.69512196164251       -7.45989785517162       28.78688350307279
C           21.32495001271689       -3.97411350208765       25.34419881393468
C           21.89641710669203       -5.37756396545351       25.07237953167754
C           22.46721253107246       -5.44146556588342       23.64659201785577
C           24.61829984425659       -4.88056372948103       24.48693000944853
C           24.07747595025853       -4.96058209290543       25.91505299120174
C           21.33662460645412       -0.19517342915222       27.92487241287612
C           21.64675728456747        0.88609115361634       26.89576157686443
C           23.08088707296913        0.70024836497696       26.40741580945871
C           24.80260234747684       -2.02449840350303       21.19455850505877
C           24.73925193301341       -2.76370578332083       19.98537375229401
C           24.25792689481552       -4.06819422682762       19.95712136916043
C           23.86556776169510       -4.65198207419221       21.14223629241649
C           23.93597346524988       -3.94382116981630       22.35071270281043
C           24.38000158052751       -2.63520642829303       22.37085473400424
F           15.10421763695449       -8.00724521110963       27.89774671618657
H           30.43252658979135       -0.81404025920978       18.64106553843392
H           29.89774592986184        0.07313287977698       17.19931445422760
H           29.83363535942778        0.84634393440187       18.78857775379288
H           28.13732470869324       -0.93073293428161       19.48758565459085
H           28.15460948547291       -3.71917718685350       17.39194225009924
H           29.58344374457796       -2.98108003434571       18.15104559258669
H           28.07537763618420       -3.16617367032035       19.08677464403614
H           27.17613273282798        3.22179198054874       16.45418546932618
H           24.83074501595381        3.27751225291025       17.32602265888255
H           24.07032716335173        1.37221999198430       18.76213193484843
H           25.79172157260239       -1.70073620529818       17.01072952673584
H           25.23777877832068       -3.32812569219944       17.42591615044757
H           22.89031625087306       -2.46961556159133       17.64167718678935
H           23.44584490017960       -0.85596327140722       17.18257591974473
H           23.54333063758147       -2.18398572342279       16.02281031607255
H           25.45386833242099        1.35867976129654       21.07570026943519
H           24.44506132935404        0.57878126933964       22.29924613030051
H           27.38294744682281        2.11617598867183       24.02706843283287
H           26.75935379298274        2.72766986750017       22.49661546857729
H           25.64007388616858        2.26008981135968       23.78127209415375
H           28.69588309385357        0.34437369821242       22.77113162576555
H           27.85718920246827       -0.75213101191742       21.67179961305470
H           28.04966395003528        0.95434308151312       21.23977192458634
H           27.09717484267094       -0.19816346166054       24.69803680082412
H           26.46867661077303       -1.42426179884721       23.58286326963307
H           22.63636354352369       -0.85900662067267       24.97396354596902
H           23.52399980344043       -1.83902344993206       27.57748884931478
H           21.63163794436733       -4.24968431493690       27.46246181475885
H           18.91891349068383       -4.42100924483964       26.31895197908990
H           17.25458770934032       -4.30510707203494       27.68087763268108
H           17.71616412332911       -5.30361147828902       30.52402718132195
H           15.41255790322396       -5.86900628456762       29.72305920282890
H           15.35932765320902       -4.53852782784941       30.87777476932103
H           15.20941800157146       -4.21210746040229       29.15122775111045
H           18.66817433059055       -3.07974531773830       30.11530590956434
H           17.17430329067433       -2.53375168043780       29.36957879275059
H           17.20703843153411       -2.93133014195469       31.09388211716425
H           16.71435451655265       -8.57155503510764       25.06229810121619
H           17.08191542285826       -9.24685336605199       26.65950884285554
H           14.84619768055916      -10.28568527614294       26.78458962376640
H           15.70448644852853      -10.84055080318809       25.32196167257490
H           13.45140653351443       -6.62716866511909       22.55037575619194
H           13.08359485232108       -5.04416091443827       21.86416665082956
H           11.93203464954058       -5.80404487400055       22.97687482430533
H           10.37738563135633       -5.30369505831607       20.97355991956946
H           11.77153429606582       -4.84996245002619       19.97665002566595
H           10.72596745776175       -6.16724974214287       19.45596795008932
H           12.41028344793190       -8.69571280270428       19.42893660637516
H           11.14926368176798       -9.75534418005249       20.07724250312894
H           10.70399310998652       -8.27558030785675       19.22324131471241
H            9.35812900379742       -7.50330799374940       21.20249146074819
H            9.77941681319913       -8.94561952332387       22.13353051347710
H           10.10326203607380       -7.34538532375019       22.80307508185869
H           12.68184155140758       -8.05788786084453       24.84465456163911
H           13.02242725700432       -8.66310048008155       26.48510482759976
H           13.91103120057192       -6.38244744476750       26.26155617555747
H           14.84088121261514       -6.83186572009356       24.82923862835787
H           18.13759937171702       -8.22735828500451       28.15373124711224
H           18.46606400143659       -7.10086026668453       29.46436446390592
H           16.88033525110324       -7.89252465762713       29.36729146833654
H           20.48628158407235       -3.80103343875601       24.67170286673071
H           22.10245155670770       -3.24468938474445       25.13423655340596
H           21.11803486151276       -6.13372638278407       25.20769617904100
H           21.70241273956540       -5.17052857313960       22.91995993186352
H           22.80762483417816       -6.47231550616511       23.45019234115058
H           25.03185437793915       -5.86135701154759       24.19078306420800
H           25.41758086380451       -4.13950758815964       24.45460999063889
H           23.88767107215787       -3.94732145808152       26.28594992382538
H           24.80069974128588       -5.45074770554178       26.56829037356006
H           20.29576967164702       -0.16188527063922       28.24958646036129
H           21.99139305840121       -0.09102634256799       28.79756043124097
H           21.52262858484245        1.86928873648292       27.34822431221750
H           20.95079633081606        0.79699162905229       26.05873485558228
H           23.77667581808430        0.86406848686596       27.23430727672411
H           23.31411432564324        1.40597698874426       25.61224393122295
H           24.19223334655588       -4.61935473634064       19.03187144970376
H           23.50064892811167       -5.66834628253785       21.13774728012291
H           24.36536153924972       -2.11010560311931       23.30834460664074
