151
 energy: -221.321003491007 gnorm: 0.003387297172 xtb: 6.7.1 (edcfbbe)
C           31.45652623194216       -0.35761459210692       20.13702014136268
N           30.44355476595043        2.00713324444005       18.93862573287564
O           30.37731303817826       -0.75231576711113       17.96747165413278
C           30.16289384357504       -0.35152912056567       19.32167217781017
N           26.85522072812336       -0.67863794290694       18.98556728743175
O           25.73610662118331       -0.58378693964448       24.58424104643011
C           30.55104341027901       -2.13894800826501       17.78458127121169
N           23.00763927136856       -2.20102322580168       26.22701074072008
O           11.40552460432973      -10.10972823796449       22.77090464145594
C           29.58614904668840        1.05051310250223       19.26409547663304
N           21.86241556026492       -1.79337272240912       26.91884370689039
O           15.35923034806353       -5.52442473605157       24.12199152134148
C           30.02752177672404        3.25851557085310       18.87092701153389
N           19.06750904123188       -3.55062690972860       25.32203045738063
O           19.21951865480433       -5.18354873479584       26.85810206803700
C           28.72295990270649        3.63841652112933       19.14659606814962
N           16.54747332494290       -5.99355631099229       25.97977044395491
O           21.44277978294748       -5.06220613318640       23.50869763132108
C           27.81978376738821        2.64753631967419       19.48362849512272
N           12.89393927205787       -9.52098364412866       24.37714237471944
O           19.64135334884393       -1.75902733491916       27.16577763453077
C           28.23662403632907        1.31701227954436       19.53577919352161
N            9.03412913267911      -11.26229980231223       27.81592385531415
O           25.63414485554200       -2.63492327189625       25.48581570014932
C           27.25015760734011        0.28898430149568       19.88548306059942
N           23.15939527253997       -3.30036504642695       22.16086187070815
C           27.17692985139859       -0.69505492084930       17.57966992278767
C           26.20773074316137        0.17596621562893       16.78263431382679
C           26.55494928264852        0.15596299002804       21.06618643198297
C           26.67062198158056        0.99701390056348       22.29640632070038
C           27.59393373678700        0.43792158847213       23.40374511338497
C           27.72561907037338        1.49292572272614       24.50510208079224
C           28.97367008921660        0.11664730902728       22.83229039435137
C           27.02030159053620       -0.85095302715960       24.00460675204640
C           25.15538832343382       -1.54203420556953       25.27956632003781
C           23.83545047662195       -1.05745894909003       25.85445243372912
C           20.62607637449254       -2.16920295646999       26.55835319257958
C           20.46784710684937       -3.18381244078973       25.41769926870671
C           18.53352242466757       -4.49052442971029       26.11769136092286
C           17.00537007311498       -4.60717866781286       26.02542909572494
C           16.35219353315763       -3.83150804093737       27.19922176765404
C           14.87574430186958       -4.19993336424530       27.33605646698302
C           16.48586837137091       -2.32876505748638       26.96658876657769
C           15.71143766605971       -6.32690643196060       24.98878581068731
C           15.09909409844015       -7.74151340073367       24.93540557679525
C           14.67165069045740       -8.06998291730129       23.50260019323417
C           13.99897027714513       -9.43843457511346       23.44765662229001
C           11.67841650044727       -9.90886505411873       23.95739591992281
C           10.68464481525127      -10.14980400743127       24.97179603711610
C            9.76429329913070      -10.51848365073248       25.65717492366960
C            8.61791661463621      -10.97637024660294       26.43619031169229
C           10.23191336136015      -12.06920160081544       27.93099374053470
C            7.98396941368952      -11.80426479813158       28.65563494288366
C            7.59510516197846       -9.82542987101504       26.43454689551165
C            8.03754005681619      -12.19062515355875       25.67741057955214
C           13.23693212278101       -9.23082652649078       25.74785843410013
C           13.87546767706392       -7.84164674057812       25.85538468121662
C           16.98542317761972       -6.88913037863021       27.03204280101449
C           20.99065767116648       -2.70063313614118       24.06668610954768
C           20.95969227782446       -3.82293572430310       23.01187964144165
C           21.76573180682238       -3.39811062170874       21.77357199582113
C           23.65215575808282       -4.59869714941060       22.58659232581739
C           22.83233945553098       -5.05065216986305       23.79223600320019
C           22.07083952840044       -0.96096123686154       28.09772228672087
C           22.85606787297327        0.28885386327450       27.71423275409004
C           24.16082886467794       -0.13367420153536       27.04585423072991
C           25.67188028075836       -0.94831569335953       20.88486020862399
C           25.87931814138368       -1.43566341371947       19.57062658106600
C           25.15432404867324       -2.51893322448582       19.08416161969567
C           24.24728617194814       -3.12622443222360       19.92498713907617
C           24.03415879620721       -2.65620458489274       21.22947871330033
C           24.72181762154916       -1.55893125479808       21.69989880047000
F           16.04061863987824       -8.70318776430670       25.32076315606637
H           32.16901982977475        0.31482246729191       19.66873260548212
H           31.25225772280871       -0.01904280669421       21.14768524446229
H           31.87769674623656       -1.35802180794435       20.18278414899899
H           29.42615665847745       -1.03199138503905       19.77753368393093
H           31.40160227374375       -2.52438515706071       18.34842546250168
H           29.65033252756455       -2.68753542852021       18.08008233339042
H           30.73371208535819       -2.27777140392215       16.72317976726993
H           30.77975233846125        3.98264807832285       18.58928239133908
H           28.42453639129964        4.67271315395948       19.09270499238880
H           26.78726428351983        2.88692338015496       19.69215413656111
H           28.19846562134274       -0.33572445983931       17.43994935326741
H           27.12376973551378       -1.72904629632009       17.23114629484608
H           26.29851824059122        1.21545005954580       17.08607510984577
H           26.43120119753855        0.10297112408480       15.72355309735053
H           25.18334965429712       -0.14730315523404       16.95091456192930
H           27.05679940455546        1.97880915224139       22.01771089875987
H           25.67426699340749        1.12656304134079       22.72229668855781
H           26.74836509877050        1.74391456938931       24.90825933079886
H           28.35066089737622        1.12221100645360       25.31388789466038
H           28.18027955065898        2.39588105665140       24.10665940332967
H           28.90854049943101       -0.69770820839157       22.11562803922956
H           29.37570106089856        0.99087139615385       22.32667631355694
H           29.65848254928677       -0.17420508254552       23.62471560936201
H           27.67925066512816       -1.24304003704489       24.78617057717436
H           26.90202407497225       -1.62319511546439       23.23861620462844
H           23.29939678066932       -0.48347062326959       25.09089317112895
H           23.56155710929306       -2.84932575777670       26.79163246661526
H           21.00006705049097       -4.09245116078525       25.72324766012839
H           18.46092742139476       -2.91391727813245       24.82744397787203
H           16.66527180639175       -4.16331351771449       25.08467385291017
H           16.87814556272408       -4.09038428290854       28.12402874873436
H           14.74740534455759       -5.23447451539364       27.63912605817187
H           14.41178840204921       -3.56613077288837       28.08641661561158
H           14.36392472252180       -4.04944996082088       26.38771435685985
H           17.52689296137270       -2.02067223946599       26.97588397997569
H           16.03310649709906       -2.05202649422770       26.01723070335807
H           15.97313301679794       -1.78959404179272       27.75846217392417
H           13.99452227765127       -7.28727528842636       23.16316959983968
H           15.54790479829091       -8.06765454411604       22.85412749952745
H           14.73159250018111      -10.21233172111845       23.70532499046546
H           13.60907459605542       -9.63260305862616       22.44699393210927
H           10.07964627341092      -13.11989823587366       27.63920010323508
H           11.02068635008801      -11.64739986709762       27.31213312234399
H           10.55422922313786      -12.05005573189225       28.97147134722222
H            7.72448820352719      -12.84365157672862       28.40494167933194
H            8.33612723530081      -11.78503047075017       29.68653742735394
H            7.09246051897333      -11.18818403212705       28.58959153393208
H            7.53079352440223       -9.39624707218118       25.43792258204344
H            6.60940867629691      -10.18422078518057       26.71579157443319
H            7.91208996410055       -9.05586752110208       27.13206795927830
H            7.09875071077586      -12.50298101065228       26.12729518777333
H            7.85680221081228      -11.91871808907162       24.64061598678882
H            8.73799813513826      -13.02281124656367       25.69356516918405
H           12.33516644805548       -9.27528488342828       26.35986644867885
H           13.95289390935556       -9.98048201678749       26.10469450433973
H           14.15199365591400       -7.66356106371826       26.89325144535312
H           13.16765362290273       -7.07299656188224       25.54508656737950
H           17.72931826777048       -7.59211524950314       26.65584976088089
H           17.45209656052312       -6.29811889869698       27.81275153623069
H           16.15246995971168       -7.44741712473062       27.45297224660495
H           20.38430240833502       -1.86915421429032       23.70908480154462
H           22.02095307798030       -2.37167128262920       24.17790752341556
H           19.92657896159774       -4.04563155347010       22.72622054050168
H           21.42800918905598       -2.42255297679365       21.42225039222233
H           21.60086009626048       -4.14259376230135       20.97437421838161
H           23.57506192189917       -5.35237458997701       21.78219478445813
H           24.69881082461243       -4.49998210753661       22.88021559544930
H           23.04974599574181       -4.38767496889096       24.63739850274124
H           23.07743545815505       -6.07848213315630       24.06467141327013
H           21.08802996871229       -0.71429917949628       28.49754862234089
H           22.62561665755431       -1.54525479226861       28.84009891223618
H           23.05921840715046        0.88047885656880       28.60555482479674
H           22.26354472775491        0.89102883198553       27.02424074172602
H           24.78613822665433       -0.67628165253792       27.75934713686493
H           24.71490212864310        0.73294674085591       26.68838894331967
H           25.29643769690729       -2.88776402193098       18.07973898552794
H           23.68765208407804       -3.98141420209280       19.57404279738815
H           24.51243432417893       -1.19747886534335       22.69140884857058
