151
 energy: -221.327285291946 gnorm: 0.009079668446 xtb: 6.7.1 (edcfbbe)
C           29.07446488741557       -1.37695100795250       18.32574517870914
N           27.48750413960258        0.66581098552739       17.25504040057437
O           27.18391204607245       -2.35206421552980       17.09241918904618
C           27.56037586945676       -1.55259757903945       18.21279692378839
N           24.32095217053633       -1.95260147534283       19.02897140644337
O           25.20681001248082       -0.82755432406315       24.62748497934531
C           27.41468602136059       -3.73327472734063       17.26392611359146
N           23.21210975237497       -1.96854339730480       27.36258771472346
O           16.86806100420509       -9.29755962485414       21.88357775432405
C           26.88142249977645       -0.20763206905111       18.04703025467391
N           22.27985579650121       -1.39565683849339       28.23459823305670
O           16.82254535236946       -4.95770504950907       26.26056914610621
C           26.96072946685375        1.86560202318969       17.09196311134428
N           19.28749728864299       -3.45465129581431       27.82768106508734
O           19.80590023881719       -4.86845916581589       29.50727548380498
C           25.80513506760142        2.28349620564537       17.73526462926729
N           17.31779610522944       -5.98579554394311       28.20287677393250
O           21.12954510688228       -5.39511212050015       25.88142077305668
C           25.16291159340546        1.37771891840802       18.55792603125330
N           15.91341486587007       -8.82649605656970       23.88650081231481
O           20.17440043612349       -1.26134340101615       29.00375329689880
C           25.68623401476970        0.09457544577150       18.71238682470054
N           11.39504354511090       -7.64251685801262       21.12853621587052
O           25.46730598913511       -2.62995432280490       25.93436865096785
C           24.97419755901129       -0.86417246925721       19.56518717870173
N           22.17510522721205       -3.99891436048072       23.69162571651638
C           24.09098943089974       -2.18351200390227       17.62512540302556
C           22.80558328797986       -1.50322206428377       17.15220183406178
C           24.79929785372183       -0.82100203769915       20.93012267755659
C           25.30989893768331        0.21305794535691       21.88243265077185
C           26.55464560775609       -0.17463794269836       22.71574231322943
C           27.03542364367422        1.06568348866426       23.47393875287974
C           27.66698872964599       -0.68816966205798       21.80486481857971
C           26.23043789962510       -1.27988932204407       23.72835148386336
C           24.91221994504027       -1.58845655803291       25.66417470927233
C           23.81400924233289       -0.95522747398725       26.50283936199528
C           21.00588331756304       -1.81519248292485       28.29119965669899
C           20.64373502817995       -3.07717291422962       27.50002455799996
C           18.97380519399405       -4.32944392317084       28.78280365468610
C           17.48390869085878       -4.67681405972711       28.83914978689100
C           16.92324126098556       -4.62474612566414       30.26647004575526
C           15.43690416323274       -4.97356803894320       30.27006566368966
C           17.13737099036738       -3.21729861272187       30.82218336385635
C           16.91364668621152       -5.99160065528707       26.92831308153601
C           16.48404274715557       -7.30702855368271       26.26183067582793
C           17.60391806495685       -7.86272965065398       25.37646355474186
C           17.11975338136429       -9.10942117510908       24.63299308325241
C           15.89213423128969       -8.93592733666418       22.54748916840148
C           14.63963613905269       -8.64163457232391       21.90033665122806
C           13.65167503922309       -8.43867478973985       21.24215800015518
C           12.49728108970379       -8.24654562095934       20.36916624961623
C           10.18278411141077       -7.42219954595986       20.36387944682713
C           11.08065726449247       -8.31034177498417       22.37491683062832
C           12.96196628967517       -7.27819351462330       19.26581929245776
C           12.16783526538587       -9.62199509302829       19.75048116067668
C           14.82052897868532       -8.33683567794273       24.68983175960418
C           15.23008814165399       -7.05524043494242       25.41609666111210
C           17.80921943954022       -7.13030594566311       28.94285754650703
C           20.76003303244874       -2.95814354165226       25.98197048593516
C           20.43000212205571       -4.30120321727232       25.30382786429677
C           20.74863047370733       -4.21428920963351       23.80665106481181
C           22.89586925428618       -5.14944880771908       24.20863760616028
C           22.53478479231812       -5.32582305035598       25.68288444635203
C           22.75985654142803       -0.30888753380777       29.07676693167232
C           23.33574120658254        0.80472309945468       28.20564868727915
C           24.41527498348493        0.22244528863112       27.29646111827250
C           23.97597814981386       -1.93736824324290       21.25618704955002
C           23.69136652125249       -2.61623204781134       20.04386048571873
C           22.88602931273418       -3.75064641508831       20.02266586279212
C           22.38161713002477       -4.21501673272783       21.21790292916594
C           22.64971277333904       -3.54901340812219       22.42247165421876
C           23.42108314491302       -2.40768036723097       22.44283874379425
F           16.13935291841196       -8.26272378288734       27.22181706245751
H           29.29638566302840       -0.65903952244404       19.11019505774266
H           29.55536871233390       -2.32044648414136       18.56785107842504
H           29.45836294437366       -1.00396144366158       17.38123130308752
H           27.16999313710526       -2.03328614062884       19.12409292430855
H           26.97536271804130       -4.21896225494004       16.39440203846558
H           28.48345884670902       -3.96605635522765       17.30743649970927
H           26.92995745087308       -4.09677903430124       18.17860276045964
H           27.50455532378598        2.51772652817709       16.42177342537304
H           25.42461599256213        3.28216218246774       17.59092284893184
H           24.25290558836107        1.64006617918496       19.07892438810518
H           24.94778842059878       -1.80670776374078       17.06075955660551
H           24.02444525740407       -3.26327688232403       17.46075501931240
H           21.95213700293428       -1.86302029233467       17.72631371159018
H           22.88045290337281       -0.42325260785648       17.27682929785933
H           22.64098891924613       -1.72210576017605       16.10162411317973
H           25.56630032284697        1.11119703234978       21.31557952435498
H           24.50759000060206        0.46515400636167       22.57916602519412
H           27.85745790933279        0.81004147613753       24.13221254469425
H           27.37649858434768        1.82485753275425       22.78095387810119
H           26.23050465009670        1.47997456592010       24.07252619274165
H           27.36358553690673       -1.61157627709543       21.31995983259704
H           27.88771542989910        0.04798629795616       21.03678188614336
H           28.57342765081972       -0.87909455770525       22.37342458768206
H           27.11795018800850       -1.54229530664287       24.31410393644486
H           25.87572502926288       -2.18354711910068       23.22456571685455
H           23.03583558571893       -0.57299919910880       25.83356276516925
H           23.94822866962635       -2.44827180824744       27.88477541224816
H           21.28970556875419       -3.88450510803955       27.86722980281741
H           18.55027936200621       -3.01381596394771       27.29909632884003
H           16.92605975010733       -3.96867247414165       28.21795929918555
H           17.47536169006624       -5.33029443600696       30.89205534241448
H           15.26009190205923       -5.97290162615407       29.87938757257718
H           15.04858063901005       -4.92747928819018       31.28323632796585
H           14.88627561056962       -4.26363002838758       29.65625711168867
H           16.62288523633334       -2.48004133427588       30.20962053323057
H           16.75573239329356       -3.15717623254382       31.83806623697834
H           18.19681811833904       -2.96465024506713       30.83903474405047
H           17.88255784001888       -7.08072877290378       24.66846520427338
H           18.48125452810889       -8.10962882597527       25.97534493397760
H           16.90732624795093       -9.90589544926104       25.35448390893120
H           17.87798866806583       -9.45300205124996       23.92657349001411
H            9.63811091490776       -8.35374358922989       20.14396348072218
H            9.52907811906400       -6.77962761522115       20.95333760327640
H           10.40865612084810       -6.91243344511659       19.43202463530697
H           11.99278812597515       -8.46663726342454       22.95044121137685
H           10.41346823072836       -7.66358708461220       22.94628799036012
H           10.57926021297132       -9.28292919838001       22.23634877304605
H           13.94594557689372       -7.57978026962344       18.91174073042343
H           12.27652644747906       -7.29049310726418       18.42226548534056
H           13.02520310207532       -6.27021775420287       19.66825898210796
H           13.06096939239059      -10.04090055077195       19.29381123592838
H           11.81726629668427      -10.31381385417132       20.51356343681086
H           11.40176894923718       -9.51273058322512       18.98697323459815
H           13.95758078530247       -8.14324177095426       24.05166524484153
H           14.55656881009907       -9.10179614990357       25.43016622933286
H           14.41801793901174       -6.72172031429225       26.06278992092372
H           15.45797656812066       -6.26040207266196       24.70545329425669
H           18.14675529530102       -7.91235675585390       28.26980393055836
H           18.66365760896919       -6.80272561743202       29.53528281957803
H           17.03954709036465       -7.53346051244519       29.60117955408530
H           20.06311885839000       -2.20349194330427       25.61584053478849
H           21.77210030825879       -2.67293810306269       25.70572131349231
H           19.37334836750873       -4.55242091956689       25.45147296186416
H           20.22070680738903       -3.37340923550912       23.35614875127661
H           20.41877000466648       -5.14603594585673       23.31582232874630
H           22.64592099154570       -6.06917497942405       23.65043325922365
H           23.96815698264429       -4.96132039111092       24.12193115074031
H           22.96385909625323       -4.49720634379016       26.25809906112702
H           22.92473203789507       -6.26994575675811       26.06568227968221
H           21.91475453965861        0.03750498076795       29.67165423138555
H           23.53193322596874       -0.70867632793988       29.74278370050214
H           23.75291887356827        1.58541990569440       28.84005611901257
H           22.53637151061604        1.23766449715646       27.60190478572437
H           25.25342780665808       -0.13979427510044       27.89743525635631
H           24.78616207943321        0.97445563308394       26.60126636116195
H           22.65887605242622       -4.26204576633793       19.09904275743021
H           21.76201545034507       -5.10003949025654       21.22718182586093
H           23.56257592050913       -1.89808676208563       23.37977561848483
