151
 energy: -221.334755008110 gnorm: 0.004832464249 xtb: 6.7.1 (edcfbbe)
C           27.62848936192404       -2.58566885101930       17.68541818412367
N           26.90523076146000        0.10756248766193       17.22803473817833
O           25.56580400542454       -2.36735799192076       16.35888965001426
C           26.16582765133700       -2.14593031820249       17.63402342047063
N           23.15889951431738       -1.70477725130572       18.91933168091799
O           24.78793575407211       -1.71704267307458       24.46857574742438
C           25.38323091778728       -3.72241660307868       16.01134363501967
N           22.67090093152123       -2.61127780436124       27.19659215028715
O           19.63925512559682       -8.47923363762050       23.45347110020785
C           26.04518062308904       -0.65503043121375       17.88684746785365
N           21.97117143093833       -1.92394365111609       28.19221655919619
O           16.45323951001271       -5.08384640949881       26.76059666929468
C           26.86465846768421        1.41813474548528       17.38442619642061
N           18.67078624762480       -3.42923787324067       28.00270310127672
O           19.36825213472907       -4.96332976501646       29.49650098120841
C           25.96128260004851        2.05284407843061       18.22275805465411
N           16.76433577074544       -5.98414843654717       28.79425641837912
O           19.85155547439033       -5.31645750469924       25.62962653982044
C           25.05759887264423        1.26602280741192       18.91292827049102
N           17.63058745990841       -8.84319761768288       24.45911990646642
O           19.99967044737176       -1.42996957569252       29.15391858120642
C           25.07777901799048       -0.11936390658095       18.75005816461850
N           15.18288614493550       -6.43646689511208       20.57085148590306
O           24.54858966719416       -3.68804512599301       25.51010630757831
C           24.13465737418023       -0.93838896241228       19.51799484577967
N           20.91601331271950       -3.89027982617764       23.47298647702921
C           22.75151618536081       -1.61059957350256       17.53917966344243
C           21.66758165573734       -0.54951810970974       17.35824481675258
C           24.07300306638938       -1.06760153178739       20.88832257496870
C           24.92722349483507       -0.37495107023493       21.90125445223556
C           26.09149165857934       -1.20254174184421       22.49363938044422
C           26.98749635538596       -0.26334856640790       23.30562204585344
C           26.90180875532597       -1.85567275259736       21.37577934943150
C           25.57016799318497       -2.30819650621035       23.41956580283422
C           24.32657011643521       -2.50067307359972       25.42330179561062
C           23.51407164857100       -1.70156529816653       26.42907936105974
C           20.64421283316317       -2.06914715685573       28.33039304341478
C           19.98985600870836       -3.16287480075371       27.47733271046282
C           18.46229199529935       -4.33327538581176       28.96042784010344
C           16.98683208617120       -4.61059785745636       29.27166715152608
C           16.65324767204557       -4.33592659899788       30.73926752780445
C           15.16926516791255       -4.56911077866135       31.01125185220694
C           17.01812624767655       -2.88119492343280       31.04137389796492
C           16.59802250960069       -6.08516765932262       27.46798696277542
C           16.62479856685990       -7.45465429230973       26.76379769323924
C           18.08262687865295       -7.92179584011725       26.66245254667786
C           18.21507611220865       -9.14179444933867       25.74574971402843
C           18.40912306188934       -8.40453571883064       23.44981569676655
C           17.70015161972512       -7.87185618494669       22.31438950374823
C           17.22005086878592       -7.34093960029150       21.34608522747708
C           16.56884092890752       -6.73483711192518       20.18783704848347
C           14.31553050702278       -6.01366012363332       19.49090559680933
C           15.06249169049136       -5.53380010592777       21.69828370371568
C           17.40053891487048       -5.50514699443077       19.76803983139816
C           16.60499615580257       -7.78683888909296       19.06722183440744
C           16.21174370435338       -8.58304547852068       24.54216745531609
C           15.97063802622639       -7.33115320886457       25.38474598080928
C           17.14543527538667       -7.05370386711435       29.69321487536319
C           19.90007093639406       -2.87182736799319       25.98180886094255
C           19.29493718930974       -4.07096335760926       25.22377661131862
C           19.48993975905945       -3.88867344929601       23.71135661870189
C           21.46921172295399       -5.19228226382764       23.80141335982640
C           21.22107889311087       -5.46074688655378       25.28366906308660
C           22.75437964588397       -1.11774386986974       29.12038638764301
C           23.63540653057851       -0.13331395590228       28.36070716936477
C           24.46691437736215       -0.88994662687728       27.32626768920074
C           22.99564364747929       -1.96245177393734       21.15292750989949
C           22.44142444888290       -2.32882272452676       19.90087450150997
C           21.35313966746395       -3.19235185791884       19.81968427228953
C           20.84232502331954       -3.70927065884056       20.99048367123934
C           21.38165863277393       -3.35736090156406       22.23601003539622
C           22.43442543412128       -2.47132429361730       22.32116705159458
F           15.88173076239370       -8.40771134003961       27.48055255926498
H           28.17883038303183       -2.08254611528537       16.89646138370412
H           28.05251251588641       -2.31387340934866       18.64685716148909
H           27.70894561808568       -3.66179856547922       17.56048507802644
H           25.58755045142544       -2.69603428307662       18.39511658728635
H           24.74230738161850       -3.71721801850938       15.13237387661386
H           26.33041596828686       -4.20910927155525       15.76509953135780
H           24.89311850406784       -4.27167577947136       16.82280986113039
H           27.59299955528590        1.97684648630071       16.81273335729267
H           25.96431243929278        3.12530751606194       18.32852142287576
H           24.32395331179643        1.71211607493323       19.56846740370088
H           23.62242220640190       -1.36382555691160       16.92874479829642
H           22.37853498663370       -2.58846195794502       17.22412892570759
H           22.06246937675334        0.43474988819984       17.59806031855036
H           21.32109512195516       -0.54528467231939       16.32953383813155
H           20.82530756624745       -0.75542801938407       18.01467823747990
H           25.36632822612172        0.50921114504303       21.43709785594834
H           24.29188896266100       -0.04950286889643       22.72666516672660
H           26.40972882812835        0.22508464103651       24.08525842986921
H           27.79763195667439       -0.81966149187555       23.77099710260132
H           27.41883730985511        0.49767666508890       22.66165913528354
H           26.28766564644667       -2.56025463970669       20.82133449112300
H           27.25904397036647       -1.09405463267534       20.68744435611157
H           27.75740051751176       -2.38821574086369       21.78267980244096
H           26.39862489339730       -2.86234625666486       23.87179177835118
H           24.94230043358664       -3.01829449764519       22.87397496836915
H           22.85907286648805       -1.01393741450089       25.88396063949198
H           23.24943138063949       -3.35281744687845       27.59548162760770
H           20.57609309516333       -4.07493918001098       27.64256357096982
H           17.89592537832277       -2.92197927368232       27.60586933731287
H           16.35814883245211       -3.97009354284350       28.64669474059216
H           17.26866213196157       -4.97690397229526       31.37532349302781
H           14.86912944679597       -5.58378222916315       30.76582309548523
H           14.95069024751961       -4.38556363912222       32.05918592553263
H           14.57296179870371       -3.88686852097918       30.40981285255645
H           16.79459938727843       -2.64988102405795       32.07897804118079
H           18.07694427157210       -2.69742505871013       30.86691965067004
H           16.45038270561545       -2.20416633140129       30.40664175025671
H           18.67083650099514       -7.09268179867406       26.26088111456318
H           18.46808292316750       -8.16554534139712       27.65098804361237
H           17.69010631044684       -9.99801875953510       26.17749212460435
H           19.26735801484582       -9.38934308079464       25.60074556091824
H           14.30699689864754       -6.75767995354073       18.70045003307324
H           13.30554539064900       -5.93297018439479       19.89105786647068
H           14.59188113125583       -5.03627481383027       19.06766187771565
H           14.05898648252214       -5.63332741761136       22.11171099439852
H           15.78045830780328       -5.80438337321219       22.47000029620353
H           15.21810177070249       -4.47901088996348       21.42640595408571
H           16.94569179561547       -5.02022495220887       18.90830999472211
H           17.46937282022025       -4.78905982623536       20.58478637399377
H           18.40533031078824       -5.82244855195076       19.49980106639898
H           15.89909002415667       -8.58267719201070       19.28607644804474
H           16.36438655233658       -7.33640251646199       18.10882793935986
H           17.60335952838288       -8.21331852214423       19.00601143087112
H           15.79895813974330       -8.44986028430770       23.54227321538837
H           15.73749616501545       -9.44586857501306       25.01769075578628
H           14.90219136495564       -7.16297691371635       25.51924825959639
H           16.39742380777433       -6.45797749696161       24.89142503007060
H           16.88460582124042       -8.02267577393475       29.28727114114188
H           18.22005979734190       -7.00189248143716       29.88349715681448
H           16.61593801561245       -6.93167698114974       30.63429518649299
H           19.27347097112974       -1.99754224545876       25.80837805691624
H           20.89644920721173       -2.68318768644649       25.58763872395496
H           18.23041371961625       -4.17576250666323       25.46166113315161
H           19.07023799791306       -2.93587711636793       23.38794910503557
H           18.96980322412954       -4.71291507513683       23.18914193893718
H           21.00745946463032       -5.99750523629037       23.20154677082061
H           22.54469644891369       -5.18455800412657       23.61816460196955
H           21.84083511219334       -4.78074144118700       25.87930486376642
H           21.47401172451969       -6.49357126841459       25.52893135619462
H           22.04795177320622       -0.61100482616195       29.77633721927874
H           23.37540060570084       -1.79473066302005       29.71781822179247
H           24.28610692241816        0.37823467783615       29.06774974371495
H           23.01341375732289        0.60809474940257       27.86149083148198
H           25.15483540617944       -1.57499046526305       27.82652577569228
H           25.04532767156384       -0.20010570335655       26.71494987108923
H           20.92087875139877       -3.46715680884978       18.86967786606359
H           20.01446624637088       -4.40178273736617       20.95797808183914
H           22.79495643504945       -2.18829939643253       23.29473074860923
