151
 energy: -221.333754590524 gnorm: 0.003911834384 xtb: 6.7.1 (edcfbbe)
C           27.51074429350145       -2.27759166376927       17.86404115051405
N           25.90252673956529       -0.23970735156376       16.75207061668565
O           25.55342268780580       -3.19692952023938       16.70129550471235
C           25.98911453485460       -2.40702798962039       17.80670414523691
N           22.97477179779639       -2.71509408947705       19.01048351465872
O           24.23762780540389       -1.08883184718936       24.38328146895093
C           25.72766032503644       -4.58639488612055       16.86451388636700
N           22.75568451175225       -1.98851266110522       27.48830726655082
O           19.76273493231738       -7.95141851882102       22.85583654989655
C           25.34554012033500       -1.04217435154869       17.64594442819602
N           21.87852807979670       -1.40338270527627       28.40716203717972
O           16.82876832347462       -5.12917288901436       26.73389949715459
C           25.41103321946014        0.97432910326817       16.57491418557855
N           18.96362207906392       -3.62483831139128       28.41378589079011
O           19.58926194745234       -5.32891962526135       29.76013776876243
C           24.34314541087713        1.47326476181920       17.30295596674604
N           17.09063999313112       -6.32193155184800       28.61183115075175
O           20.37034359708931       -5.59233224753606       26.34815118197863
C           23.74572104598598        0.63814380554407       18.22988888423791
N           17.76564139887050       -8.44469853609623       23.81807259872508
O           19.88716584185679       -1.37024299656893       29.44277572060798
C           24.23069676825302       -0.65644043683029       18.40690809842700
N           16.25072503180805       -4.47412586313863       20.31295455566869
O           24.97610497500514       -2.53858705427099       25.92808571922289
C           23.58907635325499       -1.53739898633936       19.38622007531036
N           21.38736139359796       -4.43292984882383       24.01551546845832
C           22.59264328190606       -3.06608538558164       17.66444445082994
C           21.23840827353301       -2.45716340171927       17.30430685036333
C           23.50048570061593       -1.36459993294635       20.74923513349404
C           24.02080996620320       -0.23162587061437       21.57458985654541
C           25.35907496952537       -0.48520919160414       22.30824078594606
C           25.82477572745528        0.83298795254199       22.93281621439414
C           26.41308169559833       -0.99410573608338       21.32560849324096
C           25.20566302528999       -1.53312342439453       23.41911992926800
C           24.21890376865159       -1.66391853390058       25.56857270827831
C           23.15840715630583       -1.03427176562910       26.45813233337159
C           20.66088387081192       -1.91140596331827       28.65952330245004
C           20.28155681803562       -3.22567386466349       27.96702272287846
C           18.71644481280878       -4.66854714021203       29.20873625766152
C           17.22638730677060       -5.04038778176958       29.31720909034403
C           16.70896636955818       -5.03328817767606       30.75938384241898
C           15.20951636716516       -5.32287107273506       30.78974236224581
C           16.99011027847618       -3.65797326480128       31.36506011844731
C           16.92903573367464       -6.22810849368596       27.28899159177984
C           16.88739163480074       -7.48496810510249       26.39388967696113
C           18.31652364943616       -7.98114362046466       26.13870013922439
C           18.37554924376677       -9.00292701233781       25.00130217805956
C           18.53243248611141       -7.85651305785976       22.88139152656877
C           17.84219058425525       -7.12235705081745       21.85353585181964
C           17.46731523023792       -6.41613179759233       20.95262158289075
C           16.97439346501065       -5.64921282364926       19.81143701178736
C           15.17220972399288       -4.78508470425313       21.22851598635845
C           15.79545384356675       -3.55133083537234       19.29331201350542
C           18.22222118722956       -5.21180804391223       19.02561735973394
C           16.12372155919967       -6.60629208413272       18.94835537848441
C           16.35885754694795       -8.17733363226363       23.99795221122674
C           16.16420281568486       -7.12519668217537       25.08951518851599
C           17.36478605841692       -7.52918815598986       29.36019089571089
C           20.28823541527182       -3.13333525974193       26.43722422035517
C           19.76417421961081       -4.42812937801610       25.79776364677798
C           19.96523417960526       -4.39089307104220       24.28073786287079
C           21.94804050969741       -5.68469828941136       24.49329083176601
C           21.73975850976928       -5.73159797452605       26.00625515713191
C           22.34623493668244       -0.19359900209093       29.06992540495033
C           22.71049974633003        0.85585342543509       28.02262403638913
C           23.73249194619269        0.26584734787124       27.05335881659414
C           22.78603413232729       -2.49378344755315       21.24370043603006
C           22.47760557825500       -3.31630511089719       20.13248139164788
C           21.81092758643495       -4.52688678542458       20.29601339573263
C           21.46299073293372       -4.91283281948773       21.57231364441986
C           21.73601338368409       -4.08923845845225       22.67384937932664
C           22.36891912939974       -2.87670477164908       22.51425752969922
F           16.15327845959657       -8.50196338744150       27.02136164168858
H           27.78882096086257       -1.62274502224001       18.68390023669017
H           27.97017111652072       -3.24954819990637       18.02084185011137
H           27.86468980073802       -1.85334671001499       16.92966890709705
H           25.61987317232824       -2.87166370839926       18.73517930857719
H           25.22864089909675       -5.04846409083745       16.01604308092764
H           26.78365696353091       -4.86954412702515       16.86187184783023
H           25.26663174578880       -4.93037332371936       17.79769499119581
H           25.90898901012251        1.56893275480997       15.82050423883191
H           23.98921292698231        2.47907226960790       17.14479090750783
H           22.89683207734266        0.97162682289964       18.80843402532135
H           23.35880562872397       -2.71476337451999       16.97132574976929
H           22.54147513295298       -4.15500588006535       17.59885034464802
H           20.47956130796259       -2.78470999993812       18.01159446295554
H           21.29525040128125       -1.37150961373686       17.33181011059619
H           20.94797229658247       -2.76659034893392       16.30512364667017
H           24.16642104465192        0.63628456932024       20.92942779526190
H           23.26942271799720        0.01913245625843       22.32562821533908
H           26.02055489357535        1.56947559726829       22.15856346156333
H           25.06104246540143        1.22391827883219       23.59990356243713
H           26.73835197403711        0.68159319955749       23.50266003285985
H           26.51374468983563       -0.29778975095949       20.49691677960848
H           27.37784163338465       -1.09563289400752       21.81569485678972
H           26.12446948921308       -1.96325993102317       20.92750875002527
H           26.15761315513241       -1.69511052483018       23.93479512100931
H           24.86904088596672       -2.49022676465989       23.01062392894731
H           22.27885444313124       -0.79704306330482       25.85106551738024
H           23.58869765061425       -2.34295411279530       27.96079984018471
H           20.97528863579864       -4.00332864636160       28.30654890482861
H           18.19130038976843       -3.11364805932422       28.01363332191071
H           16.63901396500335       -4.31705605407936       28.74303868312927
H           17.24560455870197       -5.78032881822823       31.34831317424923
H           14.84324261688504       -5.27352104007265       31.81096854976590
H           14.67538119725722       -4.58517977830513       30.19568940907231
H           14.98478321986956       -6.30719754001224       30.39059015038831
H           16.65498666022111       -3.63065170120724       32.39802922547799
H           18.05532491652248       -3.43413831868073       31.34198933281426
H           16.46953449912297       -2.88007710279398       30.81087319034657
H           18.93714517229618       -7.11818913631944       25.89459691352991
H           18.73003035525440       -8.43280297676408       27.03857699134923
H           17.83622542773191       -9.91315501541784       25.27650170119860
H           19.41511695505233       -9.24516189579922       24.77501261528900
H           15.52118185439554       -5.48708028802587       21.98284851374724
H           14.87350854564768       -3.86431951618040       21.72895402480630
H           14.28625388986367       -5.20620527572107       20.72913214034293
H           14.97731555048756       -3.95345431156597       18.67733615241592
H           15.42888862477211       -2.65720446191212       19.79650048373541
H           16.62015983700281       -3.26267762380381       18.64965058206003
H           18.73622190171509       -4.42068104113877       19.56583862068874
H           18.89769650125517       -6.05855510034463       18.92804532256344
H           17.95727413577707       -4.86781384137463       18.03025899246033
H           15.74255604220094       -6.08039717161828       18.07704462770368
H           16.73753629091052       -7.43808473171832       18.61397970984114
H           15.28906684439083       -7.00281207219985       19.52102755039188
H           15.93014879321965       -7.82537403022894       23.05921330954914
H           15.87165325399119       -9.11177802977528       24.28982458247594
H           15.10221219771042       -7.00322928835865       25.30624984154204
H           16.55588082333613       -6.16353376661965       24.75364330282223
H           16.46384818650927       -7.88189382564671       29.86478244013918
H           17.72684941850317       -8.32154580150605       28.71640589516148
H           18.14017829642900       -7.30827598906206       30.09241573312356
H           19.64845819105780       -2.31196116395318       26.11485802076539
H           21.30213698836546       -2.96281727675020       26.08551220576857
H           18.69976749081142       -4.54733823018415       26.01878698920041
H           19.55251701433350       -3.46767928822304       23.87192057496811
H           19.43240016254224       -5.24333374187649       23.81895464630584
H           21.47312903428124       -6.56403619775002       24.02372197140559
H           23.01702230099279       -5.69733323962754       24.27158176618341
H           22.33359378151015       -4.94025594851669       26.47851572170615
H           22.04036112849860       -6.69906174371175       26.41228289280141
H           21.54472832136561        0.14939396574172       29.72382117236259
H           23.22327859881939       -0.44642859011846       29.67531593806220
H           23.11914971972124        1.73713923705360       28.51482774707493
H           21.81118380933010        1.14689262367705       27.47788384321171
H           24.66099879265852        0.03606241867801       27.58269504759223
H           23.95548924207804        0.96668939896721       26.24996181166041
H           21.57728874413820       -5.16164197627246       19.45507886215632
H           20.96444512310887       -5.85846082158311       21.73279324717244
H           22.52565769088686       -2.25016878464373       23.37493621102964
