151
 energy: -221.322558207431 gnorm: 0.009191876001 xtb: 6.7.1 (edcfbbe)
C           30.74796659092624        0.06429993025553       19.44727704793135
N           29.09817121864365        1.82970806022705       18.01834927810686
O           29.49114683459149       -1.10112907053209       17.67898801989175
C           29.38985090438339       -0.38762249664832       18.91049418885158
N           26.03055459151774       -1.38002364126941       18.92510808245274
O           25.48820765996485       -0.55886942123254       24.50468503121927
C           30.17593598145821       -2.33110883331617       17.77126058836900
N           23.13532091115594       -2.01075532630244       26.75424963725673
O           14.15995040051828      -10.95784588593623       23.18154703489957
C           28.50588896502236        0.81078550866781       18.62786080076064
N           22.02484951780828       -1.55929247438556       27.47467225101937
O           15.80099693672742       -5.40498558727508       25.79951563766940
C           28.39838621415658        2.91187173705846       17.73319646575137
N           19.29365871598245       -3.79184800867332       26.54907418981953
O           19.78937781510425       -5.06838246896557       28.33834411469667
C           27.05867339609113        3.05809218241146       18.06243916173487
N           17.02860945490061       -6.10564373494987       27.55239023346327
O           21.47558867273105       -5.39388667081938       24.60304947939988
C           26.43295097080134        2.00246381346184       18.69660363172942
N           13.93282091404423       -9.63950713718564       25.01162778722304
O           19.82051377465593       -1.59720865003096       27.86200927257210
C           27.15248251785809        0.83868777550188       18.98001354297129
N            9.04081119986452       -8.66326308699285       22.65050068412067
O           25.68805555516035       -2.38890380815839       25.78711850723464
C           26.41701849199351       -0.25896775358900       19.62566520571133
N           22.90518690365871       -3.75990070179639       22.82584994991415
C           26.31173245394397       -1.64816687212203       17.53743017921713
C           25.27662404276381       -1.00677802013362       16.61446643338216
C           25.87127787188545       -0.27039110188673       20.88917801858073
C           26.06161349147445        0.75900674986851       21.95597828846605
C           27.12766410185525        0.42031726831993       23.02677657577129
C           27.25849075723048        1.60942899197451       23.98197133911610
C           28.47901602333455        0.14331951842618       22.37250202756088
C           26.72270485761798       -0.82339792158014       23.82506313347050
C           25.08620141050718       -1.39834388186137       25.43512709136207
C           23.78385266639297       -0.91332116637337       26.04826200880291
C           20.79453383788884       -2.06257843675038       27.28278865830720
C           20.64531104216446       -3.29558046964329       26.37464108527394
C           18.95760137002810       -4.55123620628372       27.60023764986509
C           17.44965576492753       -4.73106644826732       27.82006313659246
C           17.06812748001394       -4.30996749295324       29.25612436869220
C           15.58558118276252       -4.56117103377386       29.52058930336640
C           17.37636789588598       -2.82911943535676       29.46189694885510
C           16.10252364604049       -6.28822385555640       26.60299473700396
C           15.36464880862825       -7.63314023071786       26.49949613208911
C           16.08785144634189       -8.62550349812506       25.58592922266417
C           15.27073525269745       -9.91418644141830       25.48483581235523
C           13.47236442936342      -10.21661891963514       23.89011863197040
C           12.08932185835591       -9.98005539917764       23.56276555522619
C           10.95328428854512       -9.97938181993747       23.16085420958410
C            9.54826592006025      -10.03714988153079       22.75899477140633
C            7.60564007268740       -8.54734820209170       22.48514379206928
C            9.73827201452081       -7.86670503343303       21.66018162304697
C            9.47478203940793      -10.85744289836236       21.45237256320628
C            8.81356613723291      -10.79594759109109       23.87661481370273
C           13.18451782132376       -8.71401068664816       25.82911885304386
C           13.94550347178457       -7.39394747369138       25.96852263282610
C           17.57621643139783       -7.13032342991580       28.41930704384351
C           20.94754539764197       -3.00218215266991       24.90587845893341
C           20.85908984799869       -4.25650509423611       24.01751040061393
C           21.48203350853287       -3.96730655718333       22.63956617173412
C           23.51968946806373       -4.96942277160620       23.34587054994382
C           22.88662817685354       -5.28286706388125       24.69809290564333
C           22.24451305556778       -0.46056912474367       28.40643477190808
C           22.82556565321768        0.73516527382033       27.65991226034114
C           24.10361213015320        0.29591731463097       26.95257731737533
C           25.07903747999836       -1.45400235522082       20.96888506221751
C           25.20117565689240       -2.11884569469101       19.72151195236386
C           24.54098661435622       -3.31918213005007       19.47972797654301
C           23.77079734497681       -3.85583971195835       20.48933770310223
C           23.62935222452874       -3.20396454605046       21.72359449619898
C           24.26015910570014       -2.00054717396173       21.95437316396834
F           15.23305165085788       -8.20129451511707       27.77566747762652
H           30.59995003569601        0.76710171684178       20.26203909193620
H           31.32081642122620       -0.78158707246791       19.81862969186834
H           31.29479837406744        0.56100697347174       18.65163456823851
H           28.89140443857119       -1.04053558942161       19.64578761139473
H           31.24725028132682       -2.18624218439466       17.93356718872064
H           29.76479723988977       -2.94492773041019       18.58069408334269
H           30.02143418973872       -2.83233435471109       16.81765788970252
H           28.94364889910232        3.69409814676086       17.22420879398307
H           26.52799546025473        3.96500414951625       17.82300622184768
H           25.38965579281262        2.04797849296199       18.96917046484434
H           27.30727841276447       -1.26596496606957       17.29649131326550
H           26.31584439813950       -2.73084075139718       17.39937838946076
H           25.52422325831283       -1.22701074016082       15.57845961865010
H           24.28069993547717       -1.39154627344344       16.82930930576357
H           25.27334234906371        0.07300434915746       16.74647666885566
H           26.36019444187002        1.69717366772607       21.48457172922337
H           25.11167869584385        0.91723798100638       22.46733342926129
H           27.95288286561714        1.37372370323885       24.78471561937559
H           27.63070949448660        2.48003580824777       23.44985229086205
H           26.29477751299054        1.85471099822494       24.41936887554154
H           28.43613399708880       -0.76792350579359       21.78304990244263
H           28.74726237400366        0.96796557104005       21.71773820650037
H           29.25394494447205        0.02867035307618       23.12603399792431
H           27.48401571995969       -1.08202330768679       24.56764208392537
H           26.57882221062514       -1.68553333434801       23.16744039285188
H           23.11559777446404       -0.58482012859506       25.24417149773012
H           23.81144269424589       -2.45922558234478       27.37508512929556
H           21.31713996796016       -4.07192537654872       26.75559759341520
H           18.56668531172151       -3.30332138847851       26.04710146272377
H           16.90432717744046       -4.10766557082287       27.10683653204194
H           17.67536798882912       -4.89430329474574       29.95304427461138
H           15.33108596801229       -5.61516086688517       29.45241423552451
H           15.33089162861527       -4.21264299127386       30.51808931456688
H           14.97931511103678       -4.01566943257853       28.79854339519614
H           18.42068798446532       -2.60740296237332       29.25930245858440
H           16.76976857197221       -2.21843887420463       28.79740468756519
H           17.15662340702252       -2.54560253659313       30.48840450637426
H           16.19188745653903       -8.16207864389005       24.60538826416598
H           17.08197794142881       -8.85591867870071       25.96641608112754
H           15.20274183203697      -10.37725870732448       26.47587947918806
H           15.73739593698593      -10.61492346842801       24.79015336827689
H            7.36035172289946       -7.48680321899949       22.45187675147122
H            7.23065258383627       -9.01170867733164       21.56014196074403
H            7.09382114135596       -8.98545118848546       23.33846411120702
H            9.51703144147388       -6.81571984898935       21.84659735414244
H           10.81236781800115       -8.01798926316779       21.76063151782903
H            9.44122329427794       -8.10167196026789       20.62713460434339
H            9.84664977168740      -11.86199910100936       21.63529067287661
H            8.44558551213665      -10.92264918583849       21.10762139100433
H           10.08548119644215      -10.40560684307918       20.67370634987084
H            8.71663112113927      -10.16295832197514       24.75407640667314
H            7.82992520344164      -11.11002396456681       23.54038883288014
H            9.38484013739854      -11.68110389447801       24.14540885159709
H           12.21049094287934       -8.53578679935928       25.36964294616590
H           13.03850243611364       -9.15483669284136       26.82247547061310
H           13.41296332446836       -6.73205873161806       26.65298596792642
H           14.03174994973440       -6.88950942177860       25.00599586752717
H           16.96967777004593       -7.26215343202816       29.31707560611902
H           17.64259840895698       -8.08213636996647       27.90022609155317
H           18.57884253794997       -6.82027832951438       28.70569536761571
H           20.24687518467999       -2.25656251499435       24.52728646983918
H           21.96026020032568       -2.61085753665156       24.82990054078299
H           19.81347097248321       -4.56099379166332       23.89679862717657
H           21.04499470084565       -3.06457995325199       22.21136070286608
H           21.26533052517223       -4.81962502614098       21.97068686862236
H           23.38372307895089       -5.82826587104956       22.66452545672087
H           24.58941961533960       -4.78879452542531       23.47820103141107
H           23.16739483738971       -4.49870050995008       25.41173669952119
H           23.22549982382856       -6.25088630414526       25.07119518149525
H           21.28332291841099       -0.22688472877169       28.86315531922149
H           22.94148171418915       -0.79964703133384       29.18094084933418
H           23.03308899733765        1.54058176622853       28.36278780740703
H           22.09877074407986        1.09150823226140       26.92820449267710
H           24.85807674617146        0.00713134692044       27.69031477083593
H           24.50674506746872        1.10198542796802       26.34095091340317
H           24.62291505712122       -3.82998370003081       18.53208456673007
H           23.26603699662198       -4.79815938379276       20.32671594318994
H           24.10677369502287       -1.50800887500209       22.89862379246460
