151
 energy: -221.324258076971 gnorm: 0.007216312087 xtb: 6.7.1 (edcfbbe)
C           29.59346692887253       -2.38385051498139       18.67343759887849
N           29.52902789703662        0.41802075616988       18.24654830624782
O           28.00726592532564       -1.68201112046439       16.92550481002896
C           28.30169493378861       -1.64377711171432       18.32104519637195
N           25.19520993365346       -0.55740256330654       19.00231495762317
O           25.58436635851153       -1.39146252590018       24.65813357052019
C           27.73429630640361       -2.96712347439464       16.40952263461735
N           22.98403542538017       -2.32104973187079       26.91206069920652
O           14.85676434927342       -9.24541029257935       21.38898068192782
C           28.41695079478221       -0.17118787678258       18.66381841364399
N           22.18298998697773       -1.70589630573576       27.88003775994711
O           16.40212888654855       -4.85863144943691       25.46142113980563
C           29.71058719750450        1.70455749974338       18.48038824093475
N           18.90847965655687       -3.03878620296360       27.02473026965959
O           19.45216499313175       -4.83251837571714       28.27104500831395
C           28.79062317005922        2.48775062810200       19.16019131955879
N           16.84624234825507       -5.71822523510900       27.49703824762194
O           20.23714239942844       -4.32013917450709       24.40780019315321
C           27.62886127211097        1.88217976434767       19.60082227813956
N           15.21886640990741       -8.98016443977860       23.61032964039310
O           20.12700494779336       -1.37996582162719       28.73170943645913
C           27.41347198157264        0.52661322630691       19.35064612550738
N           10.12546649109755      -10.40304003693091       24.31937182960520
O           25.00447919170686       -3.40104336365415       25.45834048885060
C           26.17620009327744       -0.08595050802613       19.84862932733682
N           21.75230267241989       -2.58966904671534       22.79852863465709
C           25.15097060113608       -0.37344782078001       17.57288839706524
C           24.46395123483356        0.94055613530437       17.20458601499331
C           25.79215198714560       -0.24254560227049       21.16196647629676
C           26.54667754891522        0.17764318774686       22.38358976752133
C           27.37465156317400       -0.92335375543822       23.08668081479599
C           28.19933317713936       -0.27759373055799       24.20354662672835
C           28.30845080117992       -1.60508182630265       22.08836676757403
C           26.46315310150934       -1.99226311467388       23.69208008007866
C           24.90037560307114       -2.19459702918797       25.44854046395610
C           23.98194860150375       -1.40967532226034       26.37104082381664
C           20.84871681552888       -1.85141243453594       27.86068455373989
C           20.28036069130498       -2.70334168361447       26.72133040029168
C           18.60237075792790       -4.09207611577559       27.78775851225852
C           17.10174298427218       -4.34975017453892       27.96086506867362
C           16.64910196757020       -4.04190410363680       29.39499651797087
C           15.17481310563864       -4.39083844007823       29.58786522441835
C           16.87654147019306       -2.55548086257302       29.67355965575394
C           16.59557978597872       -5.83882434631653       26.18451284727885
C           16.43183016277363       -7.22780987291524       25.54367003321556
C           16.80281461749829       -7.16981232932431       24.05968617934145
C           16.58344928337298       -8.54137602606673       23.42284843535005
C           14.45214718801906       -9.29506364725171       22.55328610775809
C           13.10930306882212       -9.72586057197914       22.83944464600798
C           11.96834107140355      -10.11237195219785       22.85585790341521
C           10.57797515193695      -10.55410911707118       22.92981077905506
C           10.90798942459536      -11.15636727677912       25.28074299257140
C            8.71254189442183      -10.63306167905171       24.53934782417036
C            9.79122509903331       -9.61383595802013       22.00117331490293
C           10.50333234418609      -11.99659442568331       22.38584404410225
C           14.79351911371349       -9.05552627616969       24.98821074224812
C           14.98215708304785       -7.70696543601682       25.68902874281585
C           17.21640785918086       -6.81276079420244       28.37056665721689
C           20.37738196215619       -2.04012977349135       25.34758402796782
C           19.84921326498977       -2.96516219776828       24.23247003715144
C           20.31215039380922       -2.44770161356170       22.85780794972769
C           22.11114576045513       -3.99594663982756       22.89288093643110
C           21.62952930220956       -4.53105698909394       24.23419008661993
C           22.86594415781106       -1.04388909466216       28.98190566445746
C           23.85229138806055       -0.01768559335391       28.43076599425372
C           24.81178272602603       -0.71278031423781       27.46649192790017
C           24.50332673023469       -0.85388788243302       21.12716778280326
C           24.15810895934688       -1.01893794778922       19.76276917231375
C           22.94788256256668       -1.59665638296809       19.39089853960269
C           22.12016640326624       -2.07510222741116       20.38453270278440
C           22.46739537367612       -1.95457727056161       21.73756753507048
C           23.62643651656299       -1.30595324167178       22.10959565153232
F           17.28084856766673       -8.16933501823326       26.13259335281714
H           30.38658841332371       -2.04996595252670       18.00898347044080
H           29.87186191251023       -2.15996941105474       19.69809064076061
H           29.45962920399543       -3.45891075428722       18.57571579094339
H           27.45603395438916       -2.09010644729840       18.87191600320920
H           27.42284239613346       -2.80937422817774       15.37817687317086
H           28.62094971722457       -3.60579723489676       16.42516192171857
H           26.92509159024003       -3.44883611243093       16.97245792793352
H           30.63722815896479        2.11758709931828       18.10432645939572
H           28.97661822908382        3.53486759563475       19.33433672102705
H           26.87279163514221        2.44774451745298       20.12581580964613
H           26.16893729736096       -0.38433550708227       17.17883361253968
H           24.60550710752305       -1.21538388509021       17.13982809363067
H           25.03011337845339        1.78311321854909       17.59477500832179
H           24.40042855536146        1.03348060492594       16.12460404886549
H           23.46025031757544        0.97294555083406       17.62214465687037
H           27.23895544430615        0.97487275253876       22.10821045275736
H           25.83469684684880        0.57537139658169       23.10871537770145
H           28.75436013833538       -1.03599666040576       24.75058670501165
H           28.90813294781447        0.43138869472959       23.78568992596865
H           27.55092162183812        0.24632680426507       24.90011461988005
H           27.73572697381080       -2.10339660721692       21.31074766131748
H           28.95206347107473       -0.86409567101751       21.62214819725344
H           28.93042240050623       -2.34381794274323       22.58643643904039
H           27.04621993878743       -2.77307612333214       24.19058656484398
H           25.84776870711531       -2.46599338196259       22.92063725893185
H           23.46149488096820       -0.64688866847113       25.78091787553425
H           23.44911377501247       -3.14566498180065       27.29629479380077
H           20.83216792780404       -3.65039281478733       26.72486616551847
H           18.18740232081926       -2.40655069779200       26.71296120302837
H           16.54742998235826       -3.70551621791007       27.27304850804029
H           17.26790263151621       -4.60768385131753       30.09772766064545
H           14.98752042837290       -5.44670575190321       29.42062761144048
H           14.87116395700873       -4.14098775198082       30.60178621561977
H           14.56495078603714       -3.82044643267407       28.89176594001943
H           16.56979991947356       -2.32352917813571       30.68924739606560
H           17.92639815757097       -2.28952290266552       29.56579458574276
H           16.29193630684394       -1.94407368849677       28.99085706248553
H           16.18679515634279       -6.41037713319143       23.58051495232334
H           17.84838517785567       -6.87548888944250       23.96041799563217
H           17.25790840723263       -9.26607205944924       23.89010931879960
H           16.78160711156745       -8.50434959084759       22.35054671906486
H           10.74495092056855      -10.72356573065518       26.26838230044036
H           10.62693839376634      -12.21999454575941       25.32213885399467
H           11.96511537617217      -11.08201258588113       25.03450042774019
H            8.42271088604446      -11.68900543668262       24.41681298434758
H            8.48477644002328      -10.33739752189613       25.56344068563456
H            8.11704702602675      -10.01919485770626       23.86955777475308
H           10.32509676642163       -9.50889729487367       21.05961667503496
H            8.80235086544643      -10.01268549535115       21.79135518121469
H            9.70006055182033       -8.63406676319717       22.46213774561482
H           11.04790743563818      -12.68161934366727       23.03156637333467
H            9.46615234504049      -12.31529515349476       22.32153564868895
H           10.94402819681681      -12.03649210449013       21.39441744273143
H           13.74327040797283       -9.34730353131854       25.02333968983147
H           15.39809434368048       -9.81376627922490       25.49993789302384
H           14.71684946723756       -7.80752334789615       26.74015353782468
H           14.34042939583736       -6.95459748586189       25.23334275743277
H           17.17341142651666       -6.47039276273452       29.39707942442827
H           16.53357551232179       -7.64987811867008       28.25093357377100
H           18.23590290432296       -7.14548254917594       28.16717623323505
H           19.79421778034705       -1.12036386808628       25.34308584709580
H           21.41847925690483       -1.80721636269330       25.13760972626983
H           18.75518386348429       -3.01162083885954       24.26306647445496
H           20.05109990143196       -1.39442977442908       22.74656137986732
H           19.79352409616632       -3.03121028783277       22.07605934154350
H           21.65811446271558       -4.58208754588206       22.07318817798401
H           23.19615054577580       -4.09173561914894       22.83526919733076
H           22.20168355901797       -4.04791554412032       25.03423560108310
H           21.76692395815556       -5.61182433510486       24.29392470724497
H           22.09920570559159       -0.58254154281301       29.60386185717103
H           23.39770916736134       -1.80123828939981       29.57083466910802
H           24.40007206843983        0.43573041029054       29.25446950058625
H           23.30447664345489        0.76404510568387       27.90414499936704
H           25.40259484691189       -1.46013535950550       28.00181619274854
H           25.49063096602462        0.00409196516632       27.00759578965627
H           22.66835903043221       -1.69717729071904       18.35325368805573
H           21.19679250223590       -2.57043115845005       20.11470670853657
H           23.84252991911665       -1.18668757314496       23.15652910804210
