151
 energy: -221.324248931057 gnorm: 0.009381852034 xtb: 6.7.1 (edcfbbe)
C           30.55142606129119       -0.76224543042182       19.02756305339667
N           29.27844551215549        1.57512378133792       18.19477393457111
O           28.89221781255020       -1.27985639854630       17.29304523804790
C           29.07815212797986       -0.78788981878968       18.62114409360033
N           25.78569035693527       -1.22251643335420       18.91911413004624
O           25.58640475355172       -0.48864092713105       24.60892141329626
C           29.04925965788857       -2.67570267187515       17.15184443304669
N           23.18845743847185       -1.98130188586184       26.79745617060004
O           14.22374424670024       -9.89958232891660       22.20960959930677
C           28.48514375982764        0.60754860731563       18.63242935832026
N           22.12105635059117       -1.54357906229272       27.58460857335056
O           15.56177233672410       -5.17475066520410       26.12462043676885
C           28.83590817240604        2.81856549580560       18.15847704062598
N           19.31270873938005       -3.70853401293869       26.69904971728888
O           19.82997144716803       -5.02106600653880       28.45318363528147
C           27.55399958003371        3.17499560606292       18.54852841635430
N           17.08257270267712       -6.05552946299446       27.53796864338840
O           21.64118769383170       -5.31951021620683       24.83300233910010
C           26.71771131485750        2.17392499049843       19.00725905659563
N           14.16958168897152       -9.23646362423804       24.38137888473842
O           19.96265201290237       -1.65141221680407       28.16403480786531
C           27.17398260588659        0.85579877045658       19.06424993503069
N            8.98909399189514       -9.57078956464983       21.77928435326626
O           25.69957176850051       -2.40962235958267       25.75905784780633
C           26.28862515957229       -0.16171709220921       19.64132316473930
N           22.88126391869631       -3.65826231411763       22.94766793060970
C           25.78762387792346       -1.32959297253293       17.48040374771924
C           24.56569266805490       -0.63644257727928       16.87970431887640
C           25.82867386775759       -0.20408422690416       20.93913231031997
C           26.09775377839252        0.78424438834608       22.02856074105005
C           27.20343737223032        0.40846900978850       23.04178440573971
C           27.43879934809840        1.61254999425082       23.95912878939628
C           28.49872107837906        0.05575268042917       22.31203217182981
C           26.79117319787150       -0.79680659857971       23.89445333527627
C           25.14489123664745       -1.36735915751613       25.48695860888828
C           23.88014647359351       -0.86497484084280       26.16136467884957
C           20.88500964334495       -2.05310987857193       27.46362671853770
C           20.67249432311882       -3.23868319790851       26.51188871300350
C           18.98857459671063       -4.49272215799055       27.73369424132053
C           17.48467179085582       -4.70842137996760       27.94307033241723
C           17.12528414910377       -4.41437311257198       29.41386622756970
C           15.67492257878251       -4.78753260536220       29.70942630764364
C           17.34250462742088       -2.92803154979657       29.69051338818557
C           16.06103428248660       -6.15609526929899       26.67933808344857
C           15.49936115763697       -7.53424978713123       26.28671949046790
C           16.20410440409808       -8.01897560093745       25.01646001232825
C           15.60151213522581       -9.34374836837033       24.54968541997273
C           13.58958190016557       -9.57516249174814       23.21701061751249
C           12.14923224733986       -9.60936870645194       23.22195511403550
C           10.97148120183178       -9.80666865181325       23.06186228328667
C            9.53295313223136      -10.06006777360662       23.05159884826010
C            7.54498419496215       -9.60942067129522       21.66985975027781
C            9.60538039378071      -10.16804996421759       20.60981281716379
C            9.34584269857798      -11.57601597793248       23.29161771539268
C            8.92769150060256       -9.28456176187547       24.23287565400869
C           13.44958344661801       -8.78796278073225       25.55006811116030
C           13.99098900393542       -7.44125012328225       26.03527779587113
C           17.76328959032722       -7.16637454062581       28.17427582686017
C           20.94338532346805       -2.96106458701917       25.03521955412879
C           20.92373212715694       -4.26471196242927       24.21166688838230
C           21.48540963167659       -4.01123276195597       22.80123551538654
C           23.62081781440751       -4.77444852206058       23.51041584207053
C           23.04121525793706       -5.09420648599190       24.88652416745858
C           22.40824859888672       -0.52877696936577       28.59153732727473
C           23.04645308323483        0.68944518019194       27.93338329263546
C           24.28155962114454        0.24580420440556       27.15411811715725
C           24.98876653752695       -1.35262120562264       21.02528922841705
C           24.97866254884687       -1.95645595600178       19.74340165307240
C           24.24516071019460       -3.11372297709572       19.49932238454599
C           23.54177591007941       -3.67269826757355       20.54424509888360
C           23.53619133567222       -3.08082541045127       21.81660557042911
C           24.23557520510848       -1.91690770358103       22.05160972571947
F           15.67405319443928       -8.48070717605634       27.30378860687119
H           30.64601231374581       -0.34946119811872       20.02810488477589
H           30.96689779632908       -1.76653434212396       19.02187447048764
H           31.10013744739855       -0.13835926014207       18.32901361671647
H           28.50898347845586       -1.43061919291424       19.31429133809518
H           30.08927661865681       -2.98524545407994       17.28739106318357
H           28.41591047978747       -3.21116829965981       17.86976968644154
H           28.73442366048589       -2.90819288817558       16.13730549018558
H           29.54696000054084        3.55240785231502       17.80124594469907
H           27.22155364644563        4.19865715399401       18.49866785562756
H           25.70703409418779        2.39617726693007       19.31738246327932
H           26.70321051162667       -0.87938399915908       17.09342139017016
H           25.78399432234202       -2.38908777890718       17.21692386661055
H           24.58454526315536       -0.72337564174355       15.79748114015132
H           23.65102482731438       -1.09010372650013       17.25609836432157
H           24.56396036269827        0.41879012277898       17.14480832716966
H           26.39168642145071        1.73017296462252       21.57300847665771
H           25.17294409821011        0.94381383568161       22.58469976095262
H           26.51471363106487        1.89163041810106       24.45833846948972
H           28.18391498613892        1.37759291104883       24.71488785389297
H           27.79191115049444        2.46251487306797       23.38070769380098
H           28.36975323014628       -0.84143710292897       21.71028603155306
H           28.78746669682290        0.87183260638667       21.65300257656801
H           29.30296440727545       -0.11836110105000       23.02306373465364
H           27.57313507200753       -1.04607323303513       24.62082104721550
H           26.61161495155089       -1.67937463254546       23.27187434583660
H           23.21221584460243       -0.44124034743251       25.40350738592326
H           23.85380069118552       -2.52147249850433       27.35538089038808
H           21.32822159576363       -4.04496572218643       26.86276546479835
H           18.58857372788892       -3.19098759643109       26.22209340118851
H           16.92260041661672       -4.02562044583018       27.29880990132367
H           17.79755964731979       -4.99751444207159       30.05063626090102
H           15.41468413865347       -4.47339239478943       30.71610999182926
H           15.01167584550690       -4.28629857705607       29.00711557455530
H           15.51093016531957       -5.85898810560048       29.63121062643020
H           17.20261536678522       -2.72036132430902       30.74760550183689
H           18.34459511870384       -2.61457021775210       29.40895402841693
H           16.62895719280848       -2.33454008324841       29.12462320244164
H           16.06896618035589       -7.25082576752829       24.25544627137052
H           17.27056150034617       -8.15029977277348       25.19545913795697
H           15.81026250652522      -10.11867367147612       25.29609560143959
H           16.02847207652561       -9.64322900538908       23.59013814440932
H            7.09274420670170       -9.02265819978618       22.46453286848084
H            7.27267288106726       -9.15494292775776       20.71805863810871
H            7.13184812091900      -10.62947065321907       21.68944472028837
H           10.68765179767867      -10.18820646676103       20.73167979133833
H            9.25137570955514      -11.19018673144024       20.40867536318901
H            9.36640481380678       -9.55059407188337       19.74389799692130
H            9.81414253815001      -11.85475950516216       24.23177546510325
H            8.28613062974154      -11.81680352336845       23.34195090382357
H            9.80688310899484      -12.15431022964821       22.49368348973616
H            8.93209562109149       -8.21906559028219       24.02032332211022
H            7.91158379229063       -9.61338542259007       24.42587265651052
H            9.52168880652305       -9.46700318972539       25.12514762256277
H           12.39201707029044       -8.69679426380123       25.30149138364158
H           13.56818756253273       -9.52886625302174       26.34960745838586
H           13.48956750449599       -7.16342732319780       26.96300760929672
H           13.81676227813704       -6.65746773037916       25.29962238160300
H           18.72194734047524       -6.80433751100913       28.55093350050317
H           17.17975694826953       -7.56899314914285       29.00853369303463
H           17.95374855013875       -7.96322895274635       27.45467402152327
H           20.18717312986152       -2.28504391988845       24.63890905214143
H           21.92478353429678       -2.50712069566587       24.92587865661274
H           19.90197193624376       -4.65020469690341       24.14182724185206
H           20.95520825669728       -3.18623982020275       22.32529099417927
H           21.33736515083412       -4.92732135863386       22.20162302967272
H           23.56098852586057       -5.66850429524890       22.86299748689974
H           24.66785152029902       -4.48823995553038       23.62206074906258
H           23.27508004916097       -4.26909346358013       25.56827100949226
H           23.46538253819799       -6.01994344565758       25.27773628021053
H           21.46307930947392       -0.27973763540930       29.07225970473539
H           23.08859296609680       -0.95880009733431       29.33559453347798
H           23.32163855387599        1.41182803389758       28.69991916417475
H           22.32799200055956        1.15529226301580       27.25830712187505
H           25.03844889983057       -0.14078739082799       27.84330252700815
H           24.71245691595855        1.08020445033321       26.60248537615000
H           24.23419338566774       -3.57853554261138       18.52425858450795
H           22.98695602510831       -4.58475117092469       20.38250663746614
H           24.18607752856151       -1.46711125123229       23.02762793043845
