151
 energy: -221.324375651940 gnorm: 0.009672293462 xtb: 6.7.1 (edcfbbe)
C           29.32943940709656       -1.30854181235569       18.55621442180230
N           27.68988805746125        0.61666616362631       17.34079391943538
O           27.51070675188976       -2.38980015815883       17.31068626608128
C           27.82590255712369       -1.54343307800738       18.41348888050867
N           24.56266026249454       -2.00569840810096       19.14728274477596
O           25.11368824704918       -0.62102064286151       24.75102933520037
C           27.72753510369832       -3.76581944594788       17.54292040028173
N           23.05595385779763       -1.82902311028050       27.40507831943435
O           13.95622591812730       -5.41055967100815       21.38618110591983
C           27.10239553488682       -0.23060360023646       18.17479065523261
N           22.05761092511445       -1.32964823012175       28.24923377311578
O           16.35496493189930       -4.49813199504917       26.83115732999930
C           27.12497874075122        1.78570246978859       17.10016058326279
N           19.40043369703687       -3.84215529565105       27.98181233630040
O           20.22501515111658       -5.39726133329775       29.39522723024902
C           25.94913002757700        2.19932812003986       17.70741809205673
N           17.69683953934023       -6.15985942555981       27.53684434788502
O           21.48125285507356       -5.45422201321488       26.02780074059881
C           25.32240207382564        1.31746336392117       18.56869646308986
N           15.26973980404287       -6.57690914325094       22.81822419023313
O           20.02882144570020       -1.55733879891946       29.18700307872423
C           25.88335092722801        0.06224432788589       18.80059350026912
N           11.92627338021850      -10.53370575062990       21.18285668554321
O           25.40079648401736       -2.36651248128574       26.12713260044466
C           25.16595038611236       -0.88055367386746       19.66820802421977
N           22.35615005065603       -3.97797596335253       23.81191684315173
C           24.41118369538353       -2.30097242654339       17.74451550805267
C           23.20050023103429       -1.58258356061240       17.15043905838004
C           24.92018163880730       -0.78434753438632       21.01875570513865
C           25.34710929331375        0.30918552913862       21.94618491191667
C           26.54560510008476        0.00332591462854       22.87453900822319
C           26.93798443567691        1.29628564354609       23.59411994973351
C           27.72947991195444       -0.51626524512579       22.05805044115685
C           26.19886275077304       -1.06482319836487       23.91876516413326
C           24.80724772817608       -1.36217136708952       25.79836484610439
C           23.63264824602456       -0.78001100985998       26.56954050769427
C           20.88116055365006       -1.96310682421607       28.40396219698169
C           20.66808378479781       -3.25444053430503       27.61046636085539
C           19.28514281743726       -4.89391205709872       28.80164607001340
C           17.86069569557165       -5.46741437095237       28.81869259709722
C           17.58195615930973       -6.34223157923829       30.04715029804679
C           16.27250096629744       -7.10715910535125       29.87654107985361
C           17.52143108792490       -5.43760539880336       31.27769820259912
C           16.97700213242294       -5.53557614773679       26.59693825801125
C           16.84107097350693       -6.13267627821398       25.18387477759046
C           16.56302291346515       -5.01061199507681       24.17908799470433
C           16.32798203848337       -5.59358783854895       22.78814884471925
C           14.15601805883742       -6.40641647850266       22.08400391274613
C           13.20488061038911       -7.48759276063240       22.11100648898113
C           12.36391222692957       -8.33392113033679       21.94843032027351
C           11.32330221092910       -9.34918600596155       21.80859843936360
C           10.99480833784253      -11.58681859353207       20.83763573002675
C           13.06175913322314      -11.07540301187629       21.90127262335980
C           10.71706022566852       -9.59975975389697       23.20651135696158
C           10.25685834911471       -8.74388235858884       20.88105758580914
C           15.51165578600558       -7.68131178658495       23.71638280792340
C           15.71119701002444       -7.16649893727519       25.14617074211713
C           18.55796993673680       -7.30515959677532       27.31255694673000
C           20.71796787362201       -3.10949505240790       26.08734496974163
C           20.63789911372148       -4.49304901230104       25.41151394810015
C           20.97453575891562       -4.38940905731041       23.91756179897073
C           23.23389907348399       -4.97854400156169       24.39728376391372
C           22.86036868539654       -5.16021026054496       25.86500772564951
C           22.42546527073118       -0.20525575737924       29.10090797416591
C           22.95590184466991        0.93900894868805       28.24242124480888
C           24.11696057639148        0.43128090912302       27.38962380490313
C           24.11033742096343       -1.90927530452934       21.35303611809731
C           23.89918537956087       -2.64242068315829       20.15724925030608
C           23.12900178657606       -3.80102285101442       20.14946823903801
C           22.60151226918896       -4.24512592467998       21.34268538253680
C           22.80784289692293       -3.53300960917612       22.53287548287006
C           23.52881318452355       -2.35758336109570       22.53409277151959
F           18.03090838630073       -6.74974667663555       24.77937107624284
H           29.84623797168973       -2.24173956192134       18.75947907235997
H           29.70813247708768       -0.87708600475325       17.63582988795118
H           29.51406223176988       -0.62056432848176       19.37481955879484
H           27.42894792721268       -2.00473898953174       19.33241022540486
H           27.32324692234019       -4.27542288375166       16.66956518308193
H           28.79493351354760       -4.00259228511502       17.64013153534046
H           27.19803121141256       -4.09685677792112       18.44827335918740
H           27.64558027059312        2.41682690184894       16.39283215541371
H           25.53443613086798        3.17298532789114       17.50399161171267
H           24.39325287831999        1.58087076294526       19.05450271034168
H           25.31809795043118       -1.99920134609109       17.21727691810066
H           24.29627061205844       -3.38168719747856       17.63615746713866
H           23.34807514922863       -0.50478304798438       17.18441735152623
H           23.06518032422594       -1.88238774242315       16.11584224233083
H           22.30002595847709       -1.82851036232112       17.70899751075374
H           25.61832195379431        1.18116489092421       21.34692750273407
H           24.49563901978333        0.57686920905712       22.57592754994175
H           27.36899837545700        2.00196036709464       22.89015329131093
H           26.06736215995871        1.75083295858696       24.05162506227677
H           27.67164084458266        1.09687407170153       24.36879188746783
H           28.60842134981761       -0.63233554901625       22.68658676843177
H           27.49285540151401       -1.48066268877826       21.61634050604673
H           27.96204656684984        0.18071101868366       21.25673379954721
H           27.06224878323084       -1.26988478897628       24.56007653929097
H           25.90466635792405       -2.00115578358199       23.43776254851718
H           22.86593159464734       -0.44981223168936       25.86009907160155
H           23.80058427250227       -2.27210896243089       27.94696886052013
H           21.43381049830622       -3.96493377221736       27.94444367736323
H           18.56741794060587       -3.40855590975632       27.61123485990703
H           17.14119249719141       -4.64316559685825       28.80945091270270
H           18.41248695610973       -7.04005251976203       30.18985526856055
H           16.34390824345637       -7.83308694980457       29.07363278245227
H           16.02701993510357       -7.63072609680431       30.79501925196112
H           15.46464687439047       -6.41543460633703       29.64662490760087
H           18.43949105936295       -4.85800741910290       31.36585043511338
H           16.68133754458274       -4.74889887208851       31.20773234282201
H           17.40770042722938       -6.03992428847591       32.17549302263937
H           15.69008921506740       -4.45313942401116       24.51923502993666
H           17.41701220776007       -4.33236277164365       24.15322312937097
H           17.24523051964556       -6.07609746462856       22.43462629600224
H           16.03722361492397       -4.80905055701253       22.08808240096721
H           10.21376911992058      -11.20349602865309       20.18818434927075
H           11.54564119588181      -12.34867991543194       20.28871103996904
H           10.53434718284457      -12.06599517999093       21.71287055707640
H           13.59529961141227      -11.75018321555466       21.23363911863929
H           13.73263917857531      -10.26936795096096       22.18446937756294
H           12.77766885267711      -11.63886596419196       22.80233747798143
H            9.91574895306247      -10.33060322568935       23.13865280154257
H           11.47467316835514       -9.96305499528541       23.89717381888272
H           10.31065470777079       -8.67198132456598       23.59746877796509
H           10.04686316346875       -7.72319779456394       21.19135826148151
H           10.62807786915098       -8.72407581144079       19.86066308444249
H            9.33360476890181       -9.31305956269473       20.92385949051829
H           14.66525236820159       -8.36915833773148       23.67985106843315
H           16.41963030958019       -8.20519514186913       23.39278396342304
H           15.94221996381491       -8.00391078864598       25.80449551505069
H           14.80390428563437       -6.67987976854733       25.50470898473195
H           19.48958330194467       -7.00680449912665       26.82388798818893
H           18.81023988353612       -7.73929463082533       28.27554722492041
H           18.06023323528742       -8.05832988890309       26.70657564660344
H           19.87438105950936       -2.50707164721549       25.74715480029957
H           21.64615966449592       -2.62772049302426       25.78893853152703
H           19.63245675846268       -4.90722423686042       25.53314515254588
H           20.34471941798689       -3.63851073065275       23.43939326541762
H           20.77884759725751       -5.37207993434045       23.45249634356777
H           23.15805559963751       -5.94220972404481       23.86733706281889
H           24.26185207889316       -4.62240724857079       24.33524709110134
H           23.12706811899542       -4.24889570643741       26.41231923830736
H           23.39092631814705       -6.00933851738157       26.30008817471222
H           21.53589988679748        0.08331532777344       29.66005151383254
H           23.19663972759659       -0.54082914496306       29.80468184593810
H           23.28421969251435        1.75164680534647       28.88839680792799
H           22.15688482642242        1.30728203681671       27.59819224986509
H           24.94457547381279        0.12307877205084       28.03257667536706
H           24.47188337557953        1.20882848348423       26.71455117186778
H           22.95204179536029       -4.35056900607670       19.23723168211994
H           22.01940160253578       -5.15459323212640       21.36160424550043
H           23.61331846485175       -1.81384242907194       23.45821895224140
