151
 energy: -221.321266321418 gnorm: 0.009973927836 xtb: 6.7.1 (edcfbbe)
C           30.47255398166469       -0.27953260158377       19.93356809161258
N           29.03378827522644        1.11122753065430       17.93719442742535
O           29.60339217590861       -1.77658401390232       18.18552626174937
C           29.25147718348951       -0.89510080549655       19.25196962866942
N           26.15788209423325       -2.11366979780718       19.13182346667867
O           24.75327140173358       -0.06626302539931       24.31933463154962
C           30.25314010835174       -2.96348968449424       18.59064558916313
N           22.65120652049367       -1.54414014691125       26.77337380128563
O           11.61544219324476       -5.93674006626894       22.73336075355985
C           28.38589415533229        0.18617286384389       18.63162362957971
N           21.39340703170870       -1.29517588753483       27.33364222555466
O           15.88612836675870       -4.94902820868462       26.07116429508330
C           28.35270115279573        2.08377597827375       17.35975208359477
N           19.42067022745769       -4.31544047614324       26.77540951830624
O           20.25123538373741       -5.96947180712404       28.08051923905436
C           26.97403645509813        2.20431178469915       17.45209513236644
N           17.54194970596262       -6.46826102735778       26.20688961194291
O           22.50793282891169       -5.49521849622881       25.72470478782558
C           26.28958368365453        1.24675348261007       18.17540359600420
N           13.54109974057224       -7.13436887705442       22.86679783426367
O           19.27493210181179       -1.91474379952824       27.72399030677316
C           26.99253258694874        0.20184715520152       18.77686542368864
N            9.80003002703489      -10.77702648791131       24.73273674919296
O           25.31545498982057       -1.32143619994910       26.08965284797085
C           26.24794399166099       -0.80167187648547       19.54620613343090
N           23.37874258683631       -4.11043210627026       23.45303828225903
C           26.56466133657754       -2.60645972219738       17.83981332704237
C           25.50509117993335       -2.32233556022350       16.77518279639283
C           25.55566270327997       -0.61930866727316       20.72190105855658
C           25.34937622471509        0.65302932092767       21.48149239502663
C           26.28651133359316        0.89415995746132       22.68677554203137
C           25.98927084954769        2.27901321790629       23.26639249811609
C           27.74606323706997        0.82500654162759       22.23867525243442
C           26.08133586090766       -0.16135629703121       23.77972887232634
C           24.50199400762189       -0.68373155277719       25.45725496100963
C           23.07219286443641       -0.44294893918393       25.91000827207468
C           20.37857811742218       -2.17092327607397       27.25233682713551
C           20.64184446588887       -3.54777651953232       26.63752672754657
C           19.31268809406313       -5.42212714831988       27.52032211399469
C           17.88181416171038       -5.98034922214691       27.54222647508861
C           17.69378344775165       -7.05226276700852       28.62957694996936
C           16.35120583480362       -7.76000779574264       28.46787216046904
C           17.78174717708319       -6.38291711226849       29.99970216626123
C           16.50995130092490       -5.89133491349686       25.57819892548329
C           15.96986836665817       -6.49749155387300       24.26747636522587
C           15.17719969526213       -5.44413265736218       23.48770200846140
C           14.36640319252738       -6.06666947207435       22.34964773662608
C           12.23539487730480       -6.92791680917732       23.12474945438875
C           11.59025456131174       -7.95983331284994       23.89505492282875
C           10.94278530399336       -8.69727077249588       24.59311173807464
C           10.26276292940996       -9.61526252997588       25.50325580804358
C            9.03582808114644      -10.44096256713789       23.54824417652879
C            9.10222987339368      -11.78077500351729       25.51079504800008
C           11.31813037607447      -10.06067819198015       26.53337995431144
C            9.14523349869537       -8.82218885412684       26.21110175295938
C           14.30960493177233       -8.21037636554522       23.44198140010901
C           15.08675608643167       -7.69380235381516       24.65275979498604
C           18.41920336242928       -7.47096567104944       25.63915652289937
C           21.08633989821804       -3.56174217312202       25.17128053454036
C           21.58128254369125       -4.96726224264939       24.78754066354167
C           22.21158543500401       -4.96237371490142       23.38811168156112
C           24.35974559639298       -4.67787923767244       24.36477528237560
C           23.73732336851397       -4.78934092352820       25.75255149764097
C           21.24156320530985       -0.04595811623229       28.06895110234816
C           21.60925784627379        1.13422654347938       27.17789848986257
C           23.01651794792652        0.92327198367007       26.62271559022026
C           25.01454011212883       -1.89395703561197       21.05941942365158
C           25.39768345736202       -2.79839762977836       20.03787022217029
C           25.02361154433078       -4.13818988999430       20.08669010996678
C           24.32634083595073       -4.58280662525475       21.18986109993985
C           23.97288361420310       -3.70416423878841       22.22265372851841
C           24.27238202275606       -2.36086177552410       22.13923872445635
F           17.00170197430669       -6.94193300921519       23.43524819812663
H           31.04427629650558       -1.03895140953845       20.45915135385942
H           31.09500930356770        0.19322326335297       19.18090114625414
H           30.14763912901616        0.46938486694223       20.64847784891933
H           28.65917099498348       -1.46283427129976       19.98706284844354
H           31.26771695924396       -2.76632954619605       18.94704185625593
H           29.68242577883954       -3.46968794123493       19.37658734081024
H           30.29979615449908       -3.59426094257589       17.70478188068856
H           28.94448676291968        2.79806322436611       16.80448280329431
H           26.45843544558103        3.01812176128177       16.96916451994467
H           25.21408904972196        1.28164170355941       18.27378211479351
H           27.50662904412585       -2.13062513995228       17.55636901802550
H           26.73525267980262       -3.68159243377001       17.92421237949217
H           25.86282054841260       -2.64645055961994       15.80402186977592
H           24.58092553570909       -2.84520701498917       17.00269538295284
H           25.30038578705770       -1.25668967660044       16.72898343520372
H           25.48486421982753        1.49124732505579       20.79631927822075
H           24.32159149871508        0.66977591299116       21.84623534101518
H           26.20537802182049        3.04916692789170       22.53213934162108
H           24.94336997458181        2.35357511882127       23.55199197306094
H           26.60257951798351        2.46018781628547       24.14539491908970
H           27.99220049180004       -0.17900564802286       21.90343273422783
H           27.91357101431669        1.51467261228349       21.41490321725545
H           28.41170528125488        1.09083482165751       23.05634229084256
H           26.79496640113807       -0.01859707113881       24.59597814352767
H           26.21859296097844       -1.16870607415146       23.37792833769719
H           22.41586405112370       -0.42055287821523       25.03390427982012
H           23.35233034805536       -1.66440501942714       27.50983797254017
H           21.40150503432050       -4.05346849905697       27.24587769975794
H           18.57812586402035       -3.84014177885476       26.47984581476394
H           17.19480971242042       -5.15179446327864       27.74507887380960
H           18.50847871797989       -7.77863568585594       28.55409061853182
H           15.54583304445285       -7.02911674587070       28.41904909517794
H           16.32783419561776       -8.36084971767893       27.56393100739032
H           16.17547482125812       -8.41219705030496       29.31858833146631
H           16.99960156559452       -5.63438456670972       30.10851038995185
H           17.66662872154848       -7.12444275163060       30.78511470119379
H           18.74775475185225       -5.89883278708750       30.12236033657857
H           14.51153542188851       -4.94065001483839       24.19002976216020
H           15.87240224163904       -4.70519297674851       23.08738934463810
H           15.03418102158319       -6.47678239160307       21.58662197990757
H           13.71643312126601       -5.31497856898067       21.89880050287722
H            9.56598814291288       -9.68984455050416       22.96645190407726
H            8.93220403248596      -11.34215336057893       22.94386969390225
H            8.02706173945120      -10.06355349805411       23.77461641247962
H            9.67160358015013      -12.03409754750498       26.39833552517698
H            8.08935538286602      -11.47161724548950       25.80548035897404
H            9.01259632509644      -12.67588988816756       24.89637551632185
H           10.84771846634855      -10.51365831468829       27.40101366438910
H           11.99642212210848      -10.77405587854842       26.07520640824404
H           11.88590627943226       -9.19610605931233       26.86882520044691
H            8.42091911176519       -8.45156008821760       25.49009475103539
H            8.63941702300229       -9.45169624133032       26.93805535440582
H            9.57809980925411       -7.96932746883817       26.72983352375059
H           13.64510526290426       -9.02534137748804       23.73427637632498
H           15.01052060863772       -8.57024785117160       22.68326031831003
H           15.70090043388586       -8.49373163594804       25.06386714275603
H           14.39092793421380       -7.35406203490052       25.42296491595362
H           17.86778007753330       -8.33451366904372       25.27383763335587
H           18.99230571607846       -7.05992470269481       24.80813474280372
H           19.11346898598784       -7.79550249924466       26.40505242130087
H           20.24428392462837       -3.29999262389245       24.52955444523420
H           21.89287622936717       -2.85092259529076       25.01122931126699
H           20.74790741396512       -5.67582651636279       24.82413604017763
H           21.51187061972536       -4.55652431439150       22.65915417652154
H           22.45621137434541       -6.00347015550108       23.10968387940160
H           24.69272751801114       -5.67348302239506       24.02549748261594
H           25.22039622305008       -4.01259265792632       24.41702402063093
H           23.59494152753496       -3.78551321138946       26.16194737608325
H           24.38401479478840       -5.36079921444076       26.41781311395414
H           20.20699786372224        0.00695759502461       28.40486550404632
H           21.90261928647266       -0.07972901152482       28.94293412775946
H           21.56403297252518        2.05066348940119       27.76194439357403
H           20.89402731507082        1.20730236381388       26.35729673052515
H           23.74581195483697        0.93293500922566       27.43808874441762
H           23.27564025668691        1.71234668673803       25.91804516917449
H           25.28931401556709       -4.82391274825755       19.29605097526757
H           24.05674125552102       -5.62630827643290       21.26665824078146
H           23.94015424649658       -1.70676136160007       22.92577961680520
