151
 energy: -221.328047475290 gnorm: 0.008801080225 xtb: 6.7.1 (edcfbbe)
C           28.24603561721053       -2.02181405350943       18.07151200434952
N           27.02037372307685        0.33518320072494       17.17440240096395
O           26.16575969570602       -2.54544978974978       16.88421564890967
C           26.72343297343566       -1.90303715281779       18.03063647113036
N           23.53213291414720       -1.73405010360835       19.04205000345120
O           25.04052633499022       -1.27975855748260       24.57985818667670
C           26.06256484671562       -3.94623248981950       16.99787913031720
N           23.32374081901014       -2.40347664546128       27.46881455311561
O           17.99717416618657       -8.44192198464640       22.25092522746915
C           26.30611530309646       -0.44490643064525       17.97237273335752
N           22.66856794568893       -1.81268053218911       28.55465111399237
O           16.57516887097298       -4.72014490991383       26.81311540920661
C           26.72509863623465        1.61991209953410       17.09178092228865
N           19.32303466588839       -3.25118232007888       28.34670170962389
O           19.86115378144127       -5.16849128713473       29.39842108596924
C           25.71057857384209        2.21367323365917       17.82609105416091
N           17.18578502843433       -5.84290777469620       28.67111441616555
O           19.97068050186558       -4.90187884114575       25.84718580362158
C           24.95359490329417        1.40683989745788       18.65556719997029
N           16.62116395290920       -8.44523292808082       24.05932965703304
O           20.75971662846588       -1.46837944749579       29.69460266600684
C           25.23084727886429        0.04271142006002       18.72942826940054
N           14.37001399137048       -8.09613000330852       18.69514804531487
O           25.32669324798682       -3.20021849889421       25.70287038727930
C           24.39264805357724       -0.80544967223476       19.58499773443429
N           21.29510149791121       -3.65564762237844       23.72038545485903
C           23.19606685487799       -1.83652585523126       17.64340590963701
C           22.10420768653368       -0.83799459836905       17.26366858362750
C           24.28081768988455       -0.79294904836156       20.95682927340431
C           25.01179288657397        0.07386121442580       21.93140697850360
C           26.25323235416771       -0.55768918541142       22.60130892278721
C           26.94369530496788        0.51404423905644       23.44998157251108
C           27.22662415860187       -1.08190864304952       21.54710436363031
C           25.85865838050396       -1.73968857846340       23.49571589794477
C           24.85870008610345       -2.08623929786708       25.60651947748985
C           24.04512259504190       -1.40315266045285       26.69077512464441
C           21.35853914755993       -2.00662769422646       28.76666751472347
C           20.65079682499650       -2.99745772717893       27.83872266301454
C           19.02145319058111       -4.35132930545879       29.03894057393039
C           17.52324768831975       -4.55881642595212       29.29107395428055
C           17.17945684263481       -4.42729556555252       30.78066266968707
C           15.72085797050687       -4.79297711115801       31.04315685610901
C           17.45418043533961       -2.98459735249651       31.20870030852965
C           16.77431155757108       -5.78757705655160       27.39832397208557
C           16.56485834441654       -7.08211290009689       26.59397215541063
C           17.88512160707145       -7.43843315623214       25.90279267771883
C           17.70006946819692       -8.65505284666667       24.99714658078519
C           16.86322024473183       -8.37420423766288       22.73934986586594
C           15.70978145063890       -8.26724707748522       21.88487436927653
C           14.87872102033135       -8.22869881978372       21.01244877240374
C           13.78959829480774       -8.17427946553918       20.04231621788358
C           15.40162154069688       -7.09244181374301       18.53938480842244
C           13.40554500919112       -7.99755643376891       17.61914319347889
C           13.00707219270051       -9.49209252171319       20.19168150932666
C           12.88310102745462       -6.98324843391157       20.42040800151486
C           15.34851887246385       -8.16091113175966       24.67742680160434
C           15.45857499953614       -6.90657082856265       25.54981403731601
C           17.58614276973670       -7.05415360593760       29.35791630150919
C           20.55913967203689       -2.55654260876423       26.37660188184812
C           19.71136003803741       -3.53893819607274       25.54248696963480
C           19.93846284030703       -3.26705194444196       24.04812804105664
C           21.47130419608886       -5.07937013242628       23.94102786448262
C           21.25290391864526       -5.34114772583747       25.42812193443712
C           23.48552287486826       -1.02958840206553       29.47019547531189
C           24.23283414013560        0.05869043760523       28.70377208439842
C           25.01542511428499       -0.57752763172874       27.55713759729835
C           23.28404746746359       -1.75949707294300       21.28187964756141
C           22.83553677482008       -2.32154904352896       20.05931430228836
C           21.85775221436841       -3.31004173184250       20.03462694156502
C           21.34641104186573       -3.74476702245095       21.23756348133814
C           21.77478058608101       -3.19315086602394       22.45453906059736
C           22.72077707811858       -2.19065598802973       22.48109356559771
F           16.17389564017230       -8.14239052414505       27.41711848848068
H           28.54903995866940       -3.06295720936614       18.12864862537513
H           28.65821340856816       -1.57327664740762       17.17314463090297
H           28.62822027360661       -1.49749014093692       18.94188266333247
H           26.28290979820490       -2.36095208892992       18.93050680159520
H           25.44288517036831       -4.22155926398776       17.85776257100497
H           25.58758207645969       -4.28784927446120       16.08308475140793
H           27.03905463291026       -4.42093534048300       17.09743999677146
H           27.33649219824221        2.19748821689646       16.41075434226925
H           25.51578413828794        3.27021140482797       17.74253916552725
H           24.14171454596599        1.82060046446856       19.23758082198284
H           24.09344430704291       -1.65478775069054       17.04920910582884
H           22.85758505280243       -2.85636867746873       17.44671924777540
H           21.22898089585887       -0.98011761724336       17.88933995056978
H           22.46315664616855        0.17990274282987       17.39330760476204
H           21.82263040715132       -0.97601412699390       16.22607485545141
H           25.34283916205494        0.97869327929983       21.42016883664090
H           24.31475059842150        0.35952133935868       22.72172358987755
H           26.24337190861870        0.94734388547173       24.15738367121149
H           27.77571229424262        0.08388561708682       24.00193511794095
H           27.32727474062926        1.30466228425890       22.81108600344804
H           26.80839358367197       -1.94652988436795       21.04184619961783
H           27.42730912101882       -0.31204064424060       20.80802176451434
H           28.16572428614609       -1.37630309267997       22.00751314250990
H           26.74651196631560       -2.22540255662366       23.91204696499603
H           25.29459604120191       -2.48657959186663       22.92972197628910
H           23.31240885237565       -0.73731101572792       26.22503542410711
H           23.97991636917050       -3.11877488102200       27.78684028043008
H           21.18905200540975       -3.94924614916551       27.91376120788766
H           18.61052331628466       -2.56805418738137       28.13975033292049
H           16.95332446241771       -3.80854758005496       28.73545742700022
H           17.83417310690428       -5.08070117535465       31.36481005704903
H           15.47850719814237       -4.61642758384429       32.08676675099991
H           15.06475725543656       -4.18214738108536       30.42685168495531
H           15.53179038311336       -5.83869419278539       30.81725917586590
H           18.48483720256367       -2.70288729493387       31.00141455626907
H           16.79648931290098       -2.29935196150676       30.67983989081100
H           17.27823878099849       -2.87516236960449       32.27523196077988
H           18.20746196324658       -6.56814548758747       25.32952547478160
H           18.65866701281902       -7.64937833983044       26.64134590682723
H           17.45892579052713       -9.52938274094238       25.61079171408102
H           18.60955352524408       -8.85040498789793       24.42786196144845
H           15.01545264044826       -6.06145780931209       18.57610645161506
H           16.15564334465027       -7.21357346220952       19.31481652752113
H           15.87752696944879       -7.24125741084021       17.57092588750697
H           12.93640563856229       -7.00426176976817       17.54873049211750
H           13.93087570627978       -8.18880796552433       16.68372755961699
H           12.63249612826496       -8.75132789631615       17.73223484728745
H           13.59030499016497      -10.30833005627932       19.77657068962541
H           12.82183898534096       -9.68907980019045       21.24339873907817
H           12.05180642100986       -9.43582965738561       19.67997736475916
H           12.52309622028417       -7.10620676352889       21.43752085422127
H           13.43537113715241       -6.04840546879624       20.36071286623134
H           12.02874989053036       -6.93800328281676       19.75103409262718
H           14.59593177477281       -8.01830476611915       23.90238284828159
H           15.06536681743342       -9.01135467621330       25.30619539568823
H           14.51108724242512       -6.72690679520724       26.05834200959263
H           15.69928316746990       -6.03165038196150       24.94625913194200
H           16.71862530713136       -7.64675963969516       29.64822267596476
H           18.23947755289898       -7.66140290078392       28.73380664358389
H           18.15055787055491       -6.77772829185076       30.24218738996836
H           20.09651698650827       -1.57225917759348       26.31533476922060
H           21.55878038762578       -2.51394422615425       25.94984907237322
H           18.64726827289815       -3.42787011381108       25.78084317885845
H           19.81507045437028       -2.20298415588966       23.84289468574224
H           19.18979168194569       -3.83092753947304       23.46088843032527
H           20.75894203388250       -5.68887453421609       23.35553859936459
H           22.48965343953872       -5.35581439316007       23.66281984055897
H           22.04014727413440       -4.83818761537382       26.00012435071573
H           21.27413965810714       -6.41181237180481       25.64522330470861
H           22.81585521914412       -0.60984424056060       30.22019431051378
H           24.19853133990521       -1.70323200427164       29.95931101184139
H           24.91122951923965        0.57617431173347       29.38113139723133
H           23.51791156522749        0.78178819587519       28.30772701067158
H           25.78678085182139       -1.24216049462087       27.95331969987209
H           25.49510051957136        0.18465220338789       26.94568647299370
H           21.50547316160682       -3.73868227170297       19.10898680522516
H           20.59692297117101       -4.52368830324760       21.24814340264937
H           23.00777306193421       -1.76410190045522       23.42771944805461
