151
 energy: -221.324259336727 gnorm: 0.004092278109 xtb: 6.7.1 (edcfbbe)
C           30.66017638087421       -1.35470596219009       19.62751903751577
N           29.71079071807412        1.03008240152746       18.45723170418557
O           29.24287904206878       -1.77853210012396       17.65908134376566
C           29.27235519935567       -1.27524206487694       18.99340435964474
N           25.99946894541553       -1.43433226051421       19.01623432496655
O           25.21880019591122       -0.34305564785469       24.62822570387387
C           29.45042337211482       -3.16917684271679       17.54132469331594
N           22.45201626516997       -1.52482239678879       26.55653402643708
O           13.21940903460557       -8.62018974304371       21.70800548860920
C           28.80648495423359        0.16485918516120       18.89132322947109
N           21.20850075781282       -1.03348717953732       26.97030303966335
O           16.45237854997549       -5.52505864388161       24.99585352516541
C           29.37940870517071        2.30120456317489       18.31808392757870
N           18.98165446046360       -3.82029662255885       26.28783521767052
O           19.60798999952110       -4.76510211656305       28.23818144033906
C           28.11528024074237        2.79029503900765       18.60832141506812
N           17.33870577305331       -6.44091360709038       26.84652485541986
O           21.62485175215084       -5.26842021580709       24.91492809187480
C           27.16542046868106        1.89644332391630       19.06723864969090
N           14.38947861359378       -9.26829640431620       23.54083044549545
O           18.98431741890704       -1.31040998984260       27.12572640574930
C           27.49693800055877        0.54984731961252       19.21629301128240
N            9.30677101681803      -10.10245956560267       25.42665953097832
O           25.09027481298487       -2.02379267327117       26.10472042284786
C           26.49813149450403       -0.38105186873921       19.75134995913837
N           22.82780552546156       -3.71452906539477       22.91346796594318
C           26.13627661268899       -1.60868798649977       17.59191129852939
C           24.93142989237092       -1.03792658054950       16.84565417518161
C           25.94950041274978       -0.37325641288806       21.01526095876872
C           26.17690200916286        0.64333543674090       22.08874743996738
C           27.13220178544163        0.24867197207004       23.23968575301946
C           27.44009458390481        1.50524549861088       24.05841242972583
C           28.42819283512970       -0.33664536714482       22.67989599077008
C           26.50012050759664       -0.79975566811664       24.16334127408302
C           24.60862389239129       -1.05880124787649       25.55353317098670
C           23.22674975490963       -0.50150118115211       25.86007048681102
C           20.07841716536464       -1.72617524410545       26.75841506948665
C           20.22244282166116       -3.10324793066982       26.09844834050837
C           18.75148799884653       -4.53804613399947       27.39041232290570
C           17.33701456828000       -5.11854371697491       27.47327049387937
C           16.82291219636133       -5.13986707661533       28.92059139638855
C           15.43427961121834       -5.76748348351672       28.99645226362199
C           16.78231860880656       -3.70327102964087       29.44098034633141
C           16.80842907671640       -6.52813347161089       25.62077171576588
C           16.43097861817794       -7.89682386600477       25.02084490829156
C           16.32866928730453       -7.80124231376623       23.49670552796809
C           15.67224470203878       -9.05187548507053       22.91015084291506
C           13.25462068392911       -8.93708323555575       22.90051424294038
C           12.04289863494009       -8.99659652204201       23.67566350136331
C           10.94879630163640       -8.93819342967720       24.17597400394933
C            9.65491437682130       -8.80103074336683       24.84207530430174
C            8.14409965041842      -10.09968959350362       26.29069149716583
C            9.21409925718598      -11.17008232391257       24.44997369006494
C            9.84641262385997       -7.74772635578654       25.94601584876319
C            8.65023685941266       -8.27518254775281       23.79530610548153
C           14.48527201839921       -9.51070786498498       24.95985013972675
C           15.08871989191778       -8.28857734437330       25.65758430104320
C           18.05832444338447       -7.48237310988580       27.55310479880430
C           20.59135037738731       -3.04463392447726       24.61943825446303
C           20.85121511346811       -4.45281458084439       24.04938573487831
C           21.54648956447835       -4.34397069176504       22.68260724224002
C           23.65922154576553       -4.56290503717275       23.75178368039879
C           22.95479903077825       -4.80031294788803       25.08474724199651
C           21.21066695173096        0.18480621924094       27.76888745818740
C           21.95404231385433        1.29175037298754       27.02825737489407
C           23.35563447808691        0.80138446884452       26.67100846057648
C           25.06556014421748       -1.49070489458783       21.06753444619833
C           25.11232346981658       -2.11951728775212       19.79820225981392
C           24.34608338988381       -3.24720689364908       19.52391823521179
C           23.57012248357549       -3.77473166777599       20.53456281137199
C           23.53225985949537       -3.17802104195823       21.80249250201976
C           24.24465863535750       -2.02285202389899       22.05544475572503
F           17.35958026619378       -8.90132409643105       25.30525809879861
H           30.96618786583877       -2.39033511602526       19.74669602203504
H           31.37140780230950       -0.83280039290814       18.99486778906175
H           30.63750404176208       -0.88237860018883       20.60451815439792
H           28.55549750796409       -1.85092713114998       19.60225012816510
H           28.81915417010502       -3.71937537457128       18.24758634266319
H           29.16961588566591       -3.42524228281182       16.52178564526566
H           30.49718701500600       -3.43809017536669       17.70502149026185
H           30.16833944110774        2.94842092580572       17.96083071195670
H           27.88573252707749        3.83499324451212       18.47696656292864
H           26.16311666384365        2.22480973705746       19.30016527301500
H           27.05111655579852       -1.11112800006867       17.26502665570889
H           26.23554106140692       -2.67712292165262       17.38004817802254
H           24.81996440878154        0.02090195774844       17.06563740068471
H           25.06945256472009       -1.16033794718188       15.77572234933531
H           24.02048279817310       -1.55057263683046       17.14482564791624
H           26.59141577256349        1.54002199341408       21.62585758076919
H           25.21221621475154        0.90106938725435       22.53008576986268
H           27.94969289260206        2.24198886993321       23.44315909395011
H           26.51924395981046        1.94451040079576       24.43586725029057
H           28.07942914785495        1.26285512925202       24.90392956186426
H           29.12135576416463       -0.57045562766529       23.48376726831653
H           28.22602652483765       -1.24703685078835       22.12127002614843
H           28.89801377622942        0.37940576597049       22.01055245391509
H           27.13928447098341       -0.99078474528203       25.03132944210745
H           26.35342951329280       -1.74574450918726       23.63329098451650
H           22.72162477879269       -0.28276915785702       24.91238080471742
H           22.98975828780568       -1.86440812467831       27.35628765421230
H           20.98361672550387       -3.65791707108964       26.65769304263108
H           18.22270621413263       -3.62708655348581       25.65001773730147
H           16.66526510465329       -4.49706793901704       26.87328034331959
H           17.52373099179978       -5.70639095990851       29.53870672026835
H           14.73832045357857       -5.21230528542577       28.37180100637166
H           15.44662519337585       -6.80014532712686       28.66169793160303
H           15.07563718934772       -5.74256539007768       30.02094089097698
H           17.77055698083749       -3.25031406010598       29.39707504495449
H           16.10694449516927       -3.09639238903573       28.84210502983224
H           16.44378556684246       -3.68952904432848       30.47275849991800
H           15.74159927962590       -6.91634099292246       23.25002199877730
H           17.33041153968357       -7.67602042979713       23.08341400139850
H           16.30339082270227       -9.92703357071051       23.08616494409162
H           15.50952877475114       -8.92455800625652       21.83901377606440
H            7.20947471160930       -9.85549328482463       25.76523145118323
H            8.04180323537643      -11.09907270693540       26.71062114464573
H            8.28680301114940       -9.40169188934686       27.10988789806749
H            9.26510414536273      -12.12267883897551       24.97703153762148
H            8.27783085972801      -11.14793836069737       23.87230610816729
H           10.05376684596329      -11.10910289145900       23.76005833276207
H           10.39403284462303       -6.90007129489298       25.54167791557007
H            8.88681975721577       -7.39294482918491       26.30923306334977
H           10.41529812339758       -8.17216277901317       26.76831665963639
H            8.98623324493418       -7.31137132464157       23.42252148166057
H            8.57670288403434       -8.95848981458188       22.95267862335480
H            7.66817889819412       -8.15379831506654       24.24501365117911
H           13.49515837665053       -9.72424643994073       25.36301202721775
H           15.13691489170657      -10.37564540405774       25.11381126881102
H           15.24333333003770       -8.50844000512762       26.71345811063128
H           14.41269649209328       -7.43762792194353       25.56583784161977
H           17.38559283460979       -8.09641565135834       28.15190700276087
H           18.60640598888408       -8.11610730476605       26.86473592477098
H           18.78290854362939       -7.00289583189746       28.20767722549189
H           19.77940901906885       -2.58587577055436       24.05516864263344
H           21.49378713658427       -2.45016989445822       24.49495734568878
H           19.90603448903238       -4.99774372602194       23.95106749141157
H           20.95752500579644       -3.72443208596467       22.00627670875184
H           21.63972598617835       -5.35903471965044       22.25912692075581
H           23.86237734951233       -5.52983531557302       23.25707724333734
H           24.60904730496254       -4.06052899828501       23.94227634930689
H           22.96699865979005       -3.87085277031737       25.66407697524949
H           23.46199994083404       -5.58290560252014       25.65055177966486
H           20.17049548339446        0.44658287170816       27.95725821459190
H           21.70509169566439       -0.02835286421298       28.72368560463330
H           22.00964348270403        2.17484536772489       27.66313345973019
H           21.40986811398483        1.55002443583047       26.11979489811736
H           23.92496930287402        0.60444979849675       27.58234415034052
H           23.88891408786851        1.54455529360479       26.08064131119292
H           24.36799268854774       -3.71892347232599       18.55343984156055
H           22.98854323042891       -4.66549283114918       20.34909453694388
H           24.14634325299605       -1.56246610078582       23.02173603605538
