151
 energy: -221.321417729195 gnorm: 0.005086410257 xtb: 6.7.1 (edcfbbe)
C           31.21194569855633       -0.69996781474487       19.70082811305715
N           30.18114779665894        1.67215763776614       18.61818305096847
O           29.72159285197372       -1.19822530371372       17.80973959387685
C           29.79620920718158       -0.65644762079645       19.12750480048057
N           26.40855220568437       -0.74133313580604       18.85570840897570
O           25.56816825060231       -0.65317422240363       24.57092759625770
C           29.84480534644944       -2.60170652292189       17.74655262993530
N           22.70981169857584       -2.00541154105498       26.23956948344583
O           10.25236417265202       -8.10110863568683       23.78084090707848
C           29.29912946805298        0.77261558208451       19.02838574468131
N           21.54176359559722       -1.52494925510726       26.84054383938397
O           14.93340417811555       -4.83026195507159       24.64722919386416
C           29.81136466038502        2.93496733464156       18.50138480947033
N           18.88971351872292       -3.62108653592140       25.47164378866426
O           19.36621118042036       -5.42191236494676       26.72980318726851
C           28.53706471345415        3.38425163917366       18.81122401176239
N           16.60081452696184       -6.09473764383880       25.47728898110812
O           21.47093904762486       -5.11283724406688       23.86691163726805
C           27.61081052395965        2.45273888771274       19.24332822424055
N           12.43286160333264       -8.74372075324712       23.73416153250085
O           19.30937617264075       -1.57864372914781       27.05433908574130
C           27.97712100470264        1.11160809880888       19.34568048576077
N           11.61030813691426      -11.97756999996037       27.75792202934189
O           25.28237883753532       -2.61991738077431       25.60433114269414
C           26.96678329114113        0.13070092952527       19.76521784575241
N           22.90737719611852       -3.32240358679782       22.25324084660721
C           26.62600788615372       -0.72384837358111       17.43072098150484
C           25.67886852633089        0.25043392103349       16.73259983361116
C           26.39339614722032       -0.03492454264258       21.00529149518838
C           26.67270500464745        0.75194264363830       22.24726875576783
C           27.54180333228370        0.06600287539691       23.32836055424432
C           27.89184566122709        1.10271636174086       24.39926517532937
C           28.82282811490851       -0.48786765056532       22.70701370141632
C           26.80644887962594       -1.10222474502735       23.99645293597991
C           24.89356287884257       -1.51015747520597       25.31375809512734
C           23.57693059006617       -0.91771541470821       25.79406958753365
C           20.32858433536185       -1.99162249594312       26.50779965438526
C           20.25285425532883       -3.12917852685120       25.48455405924516
C           18.54065048371995       -4.69837994095622       26.18425476478845
C           17.03560577293864       -4.96121223268133       26.29446588917027
C           16.70986048778476       -5.16933173262193       27.79044296307569
C           15.27225418177023       -5.63874944507130       27.99465533804397
C           16.93834369893133       -3.85248304953069       28.53397438769327
C           15.48474963089535       -5.92676957148301       24.75404887661918
C           14.81856298022060       -7.14713176061621       24.06642326462117
C           13.61973310091834       -6.66731663729934       23.24062252698186
C           12.79960136740213       -7.83028312712385       22.67594005535551
C           11.19529805711310       -8.72894853488138       24.26740613017058
C           11.03626168512223       -9.52701059743714       25.45719100376112
C           10.83707558290538      -10.14432318284353       26.47152582607358
C           10.62371258564063      -10.88881758565610       27.70981521528932
C           11.60540922165703      -12.75881913605491       28.97799020084047
C           11.58699069907626      -12.85511203411892       26.60488632357558
C           10.88364267153016       -9.89464219249530       28.85642467747054
C            9.15315304344550      -11.35022644137727       27.74226833774626
C           13.58034371685729       -9.31166146093198       24.39825301258313
C           14.37877813257455       -8.20151179893605       25.08636833109473
C           17.34733523692117       -7.32638740003828       25.62651904441846
C           20.71166143873714       -2.77318425258279       24.07244563078688
C           20.82267504671506       -4.04014350110539       23.20164376180591
C           21.56403250681500       -3.72307247567107       21.89428955310820
C           23.60742545114791       -4.42491370049101       22.89425258134467
C           22.83869402600204       -4.85410581730328       24.14137026414482
C           21.71047680944740       -0.58256561358328       27.93856102116513
C           22.53516015869483        0.61185577917908       27.46957891591255
C           23.86285542237830        0.11372911074607       26.90244046309881
C           25.41662817955703       -1.06276766115280       20.85177355312090
C           25.44634038335345       -1.47001004844813       19.49457248994083
C           24.58178417442432       -2.44990510971677       19.01859355765369
C           23.72458099938217       -3.05837674205668       19.91098074611758
C           23.70007266496741       -2.68166437982970       21.26085483486812
C           24.51217669001689       -1.66478521361599       21.71911489946282
F           15.74033352714327       -7.73207813763644       23.17857333772538
H           31.52382923245053       -1.72546933783941       19.87672007841129
H           31.89201860071502       -0.22435598004086       19.00124071690658
H           31.23849172400739       -0.16039764912135       20.64219472710714
H           29.11071962688200       -1.22735194482315       19.77492117270570
H           29.12725594478298       -3.08598285878222       18.41939833674365
H           29.62301353933636       -2.87369185361266       16.71703800969493
H           30.85600825668140       -2.93221451753413       17.99870432777742
H           30.57840004806091        3.61055027171430       18.14878301828982
H           28.27856664973222        4.42599692012119       18.71068622171587
H           26.60057688348158        2.74605318696651       19.49138834716789
H           27.66352677869413       -0.44528268383729       17.23429094628930
H           26.46709594704292       -1.73599417679128       17.05210103135168
H           25.85145134815187        1.26365758723204       17.08834605477375
H           25.84903766858634        0.22459573673927       15.66033532270191
H           24.64393242914447       -0.01733170992202       16.93317358961693
H           27.18455361492791        1.67205608491566       21.95814300994872
H           25.71940734535139        1.02039176810928       22.70664222871788
H           28.46405621968242        1.91762432939866       23.96448701250503
H           26.98634244713108        1.50910186038039       24.84168275127123
H           28.48750104521267        0.64677122104263       25.18647483392508
H           28.58889362375722       -1.27322326417653       21.99315881113966
H           29.35376967466878        0.30495506151809       22.18680407121223
H           29.47433571324863       -0.90196156276144       23.47189367066128
H           27.41881541264920       -1.54045512062056       24.79110980649119
H           26.58234516057852       -1.88808661456135       23.26845425816890
H           23.08692448151022       -0.41517067730942       24.95282260162694
H           23.22923368740726       -2.60168090220012       26.88700905624854
H           20.86112283595253       -3.95699363485735       25.86810127046241
H           18.17754693170982       -2.98815416484785       25.13813977903009
H           16.47843156593028       -4.09394049681008       25.92790792966338
H           17.40552679688493       -5.92049336714693       28.17697046228859
H           15.02531525057097       -5.60499925253106       29.05205948942998
H           14.58492800948155       -4.98786536759812       27.45734737987205
H           15.12937898496470       -6.65605245531271       27.64175815796477
H           17.86317716932302       -3.37073985653748       28.22303718108838
H           16.12005782561997       -3.16376316172669       28.33763685757004
H           16.99194810814818       -4.03150236499018       29.60424873092095
H           12.99506336866623       -6.05297715583695       23.88938825253944
H           13.97807993960356       -6.03587378473976       22.42765345144244
H           13.38549362959506       -8.37675333504201       21.93218939660002
H           11.88609275604510       -7.45166121832666       22.21446010899703
H           11.65162792994576      -12.10890081023584       29.84589612717017
H           10.72820239086090      -13.41739166961731       29.06593779853045
H           12.49679094514928      -13.38568490841826       28.97413484346407
H           10.74840711895390      -13.56763737002772       26.62114555165123
H           11.52679760504840      -12.26659605825536       25.69254840058180
H           12.51525538586787      -13.42543966006450       26.59213187986560
H           11.95288446359183       -9.74198437242270       28.97282000281024
H           10.41533572178471       -8.94101285538702       28.62426870995260
H           10.46381530574067      -10.26221549837455       29.78824152204331
H            8.49884294928003      -10.48458744848761       27.68105188365703
H            8.93615179044384      -12.00383128385923       26.90074832522764
H            8.94862721700978      -11.88013007504327       28.66903081613193
H           13.25774015267937      -10.04986071885685       25.13150640456359
H           14.20513279239408       -9.79775542891592       23.64340742317718
H           15.23689804481530       -8.64543365032524       25.58073555618024
H           13.75174557452511       -7.70605423127848       25.82816398021480
H           17.23848063894675       -7.95652396508041       24.75553732014880
H           18.40110947485817       -7.08549961870807       25.73602051277362
H           17.03806915014577       -7.86045684975564       26.52240211895586
H           19.99898702138485       -2.09170334153725       23.60957000186178
H           21.68806732596636       -2.29743029868183       24.11356621566092
H           19.82449372747016       -4.43303441432480       22.98365551741931
H           21.07423929330353       -2.90228085111312       21.36912013757647
H           21.54189088928311       -4.62569940690850       21.25818248903006
H           23.71320011577509       -5.28191464503291       22.20495589030979
H           24.60200000624934       -4.09106249339533       23.19416203398371
H           22.93950545794129       -4.07518392436319       24.90569416912559
H           23.23558173643591       -5.79321529573574       24.53026234530055
H           20.71466283561199       -0.28585395773438       28.26594172099396
H           22.21983843820862       -1.09707737525772       28.76138531591693
H           22.70937256165934        1.28438928546276       28.30803049601845
H           21.98240352652346        1.15136544501819       26.69937073618670
H           24.45009322626009       -0.36058985824284       27.69271246814576
H           24.44027390103523        0.93866367574624       26.48764193927750
H           24.58199528202953       -2.74375841838360       17.98006221355316
H           23.06274411247778       -3.83816046089070       19.56446968612125
H           24.41650830180295       -1.35788856496004       22.74459140629105
