151
 energy: -221.322776823333 gnorm: 0.009137763602 xtb: 6.7.1 (edcfbbe)
C           28.58189154334223       -2.55783786521902       18.02454590843357
N           28.60988556556020        0.24840400450773       17.99202444385185
O           26.63503976925995       -1.70110055306413       16.80343370212505
C           27.27766492166356       -1.76547880776769       18.07802480790139
N           24.34563110108767       -0.55441933096828       19.21070930342537
O           25.40689642835582       -2.10679166136657       24.60746538549466
C           25.89844691695325       -2.85626184861700       16.46696529771927
N           23.18151967926168       -2.82460134186910       27.27320949750364
O           14.46308602497579       -6.84052195393681       21.36819871335933
C           27.53213761337879       -0.33005975104171       18.50054030246792
N           22.56782201381844       -2.09962158241099       28.30182556363319
O           15.98200899929949       -4.27881438644770       26.73202290502709
C           28.88204539392388        1.50210021240829       18.30711933029337
N           19.15218035600060       -3.10256689936695       27.77003498787151
O           19.92754622229638       -4.47223315290884       29.37984970123201
C           28.09601090881162        2.25629815636794       19.16419377503061
N           17.40671502900251       -5.54461162130872       27.93101626581409
O           19.48775129692211       -4.08080474843897       24.95926004669327
C           26.97019283761009        1.65942510224267       19.70232942942851
N           15.57467286667636       -7.39430316752943       23.26777102191092
O           20.66104247437843       -1.32574185173380       29.20942073607726
C           26.66098378920938        0.34208552213764       19.36823979447353
N           12.51966109636438      -11.23523568173785       20.46949738287680
O           24.98472078602885       -4.07351917138937       25.59986927469123
C           25.47113672525651       -0.28426637419031       19.95822038655306
N           21.19300106278716       -2.69724844878062       23.21675910900774
C           24.11240162986104       -0.09042628981698       17.86476988121701
C           23.53912876057580        1.32591246131741       17.85894402497649
C           25.27837263016141       -0.64812907213406       21.27081891837956
C           26.23972218329359       -0.45049891931330       22.39933509274003
C           27.03341227282273       -1.69324356732873       22.86494184908352
C           28.07716057137720       -1.24161530209516       23.89152355551670
C           27.73082751569232       -2.36409009651292       21.68453238830073
C           26.10522438222032       -2.72346757231904       23.51875579926336
C           24.88737276632446       -2.86746549707663       25.54975104426239
C           24.17692498887461       -2.01344885636289       26.58568245864655
C           21.23350201055413       -1.99217340443333       28.35747841403870
C           20.47415631868144       -2.78053901507449       27.28433776537171
C           18.98976503639814       -3.99142897608318       28.75485254219516
C           17.54066078916256       -4.46464007565223       28.91772915479482
C           17.19910869608899       -4.85575011695926       30.35903973780167
C           15.79241496694939       -5.44298524345565       30.44157236532368
C           17.32257118392057       -3.61103647580173       31.23663234149934
C           16.70359484822017       -5.27528382935488       26.82212173124453
C           16.74977713860105       -6.23068955602349       25.61621275669558
C           16.52942935045250       -5.41094425875311       24.34085578186060
C           16.53178925426574       -6.32009991896056       23.11942876042859
C           14.63545381206352       -7.59596145275914       22.33218222054712
C           13.84885216314291       -8.79867429583364       22.43666740370497
C           13.16496462926797       -9.75742383612885       22.18094350329411
C           12.36811941597385      -10.94932233358878       21.90699670478804
C           11.83272876666097      -12.42009773067711       19.99868857586813
C           12.22856137618564      -10.11486301140225       19.59816932992753
C           12.95826562268826      -12.10305187290050       22.73454747340027
C           10.91915171856379      -10.66918366208969       22.35147300679071
C           15.75642724576882       -8.21235839522767       24.44323041177910
C           15.70220870166956       -7.34608196534426       25.70780500202957
C           18.26867253199266       -6.69467054253012       28.11518383607790
C           20.42198669809178       -2.01192576015672       25.96444272572851
C           19.49227615771250       -2.66283548877602       24.91705763977129
C           19.87649389124670       -2.17495617997569       23.51173659871968
C           21.14443599148526       -4.14875764324364       23.15872076828339
C           20.70469078690604       -4.66772794269848       24.52526080450957
C           23.44528321100563       -1.51442939561728       29.30221181209200
C           24.47144721636425       -0.61081495862001       28.62086613834263
C           25.21478067788177       -1.40730126472481       27.54964452456293
C           23.95040892982710       -1.16639513920971       21.34485718707534
C           23.39705005663921       -1.08029838486351       20.04166781035922
C           22.09398304489516       -1.49382044792655       19.78321450512948
C           21.35588797820462       -2.01681885304449       20.82315349542593
C           21.89188535077437       -2.11150190651862       22.11482674361944
C           23.17116261164545       -1.67078216678850       22.38200764715027
F           18.01162858728819       -6.82509115231126       25.50474323530048
H           29.25225520661009       -2.08458140550785       17.31431257884380
H           29.04660429174574       -2.56264828738589       19.00586655221583
H           28.39549684008104       -3.58324536222965       17.71972171356121
H           26.58097934008297       -2.22829841541551       18.79353530974583
H           25.45487296902406       -2.65260574343521       15.49505827572312
H           26.53691299125052       -3.74237856948017       16.39716728769276
H           25.10767307145975       -3.04091850788789       17.20613979600397
H           29.77444768822815        1.90973452181189       17.85260254690500
H           28.35622613097189        3.27523963937424       19.39973781352930
H           26.32066555907350        2.20304807754690       20.37308712626513
H           25.05601408230163       -0.11540916220648       17.31472666364737
H           23.41459056768443       -0.77883212584313       17.38100685896565
H           24.25608672608891        2.02433303957859       18.28357808292275
H           23.31691064317424        1.63138219142736       16.84118353433499
H           22.62495592985858        1.36476730243216       18.44697309717843
H           26.96898102925677        0.30342827557906       22.09697099794035
H           25.68683495197965       -0.06757156569514       23.25944456481493
H           28.79583914307386       -0.57177271724771       23.42823263186494
H           27.59803017116915       -0.72186107972903       24.71595203054659
H           28.61323350324071       -2.10017516224063       24.28941877001896
H           26.99960014591596       -2.76462920552525       20.98802249590551
H           28.34864465461460       -1.63978155515465       21.16017228684982
H           28.36295746331503       -3.17936192230670       22.02681522547777
H           26.66805012875265       -3.58032601063494       23.90033247582230
H           25.36577504823582       -3.08734704622672       22.79938364965934
H           23.65454513149823       -1.20058262003535       26.06906114625157
H           23.63236316058864       -3.66398464865931       27.64495729721049
H           21.01243869824977       -3.72605288865432       27.15612924684730
H           18.35054210952032       -2.70855098420162       27.30397054707029
H           16.85129806143276       -3.67821664968875       28.59811386602798
H           17.92677760650939       -5.59232783251381       30.71736818155030
H           15.71525252926640       -6.35464465206889       29.85452940485390
H           15.55285532978261       -5.66892524827195       31.47516461453611
H           15.06422862977286       -4.72678527676092       30.06307775630599
H           17.10593955758270       -3.85986222184153       32.27254012177942
H           18.33270630620333       -3.20647469696123       31.18267411527213
H           16.62536742528583       -2.84164103241208       30.90927741239289
H           15.58296414649865       -4.87874210239408       24.43337708325653
H           17.33775903281466       -4.68274825296688       24.25938484718473
H           17.53062411078331       -6.75518434252543       22.99015455309711
H           16.26570499579570       -5.75854508995753       22.22214996635518
H           10.74053658957584      -12.29585563484400       19.94544903714282
H           12.19469256055645      -12.63447590574886       18.99339075332694
H           12.06758542523043      -13.27115385105561       20.62985345701961
H           11.15202486797999       -9.89914736276809       19.51355762587594
H           12.73759192096727       -9.21922042545379       19.94934690274528
H           12.60344975960354      -10.35125275015696       18.60170901867651
H           13.92000038064653      -12.39632891504550       22.31931681575380
H           13.10164973246624      -11.77289668109175       23.76079636965477
H           12.29068504873703      -12.95947589253945       22.74102097143440
H           10.89168586308992      -10.48806426122799       23.42213602697807
H           10.52619063717118       -9.79141550506573       21.84441678113177
H           10.29041447108249      -11.52536316813634       22.12465552714414
H           14.97777925198354       -8.97677931661850       24.46968038977391
H           16.73718930358408       -8.69985315770184       24.38817079178621
H           15.88945158815679       -7.97299321397371       26.57949465874504
H           14.72209561416953       -6.87930163786270       25.81313357484576
H           19.17671423635260       -6.61326315613685       27.51603898043481
H           18.56513052651250       -6.73433147933037       29.15694354153760
H           17.74792366475859       -7.61191293267337       27.85446291081676
H           20.07511975319953       -0.99451289740102       26.14572896676920
H           21.42814246829004       -1.97732511449535       25.55165340755729
H           18.44762962395065       -2.39301339396047       25.11939372353639
H           19.90721156858091       -1.08486320172119       23.48853080603946
H           19.10943427393463       -2.52549764226219       22.79768784429602
H           20.44688058131562       -4.49924158687227       22.37917203030291
H           22.14226226359824       -4.53004743340187       22.93619087077877
H           21.50420882486863       -4.47458815460844       25.24936120654401
H           20.50227392992043       -5.73941399641502       24.48918265210761
H           22.81676540910987       -0.96246027913058       30.00173440395257
H           23.95224872412279       -2.32630993659038       29.83775986328542
H           25.16796944671601       -0.22640239611251       29.36379384015515
H           23.95650516202405        0.23225891031803       28.15711915916711
H           25.79090754061087       -2.21306112233493       28.00997897943785
H           25.89603144164700       -0.76485684320033       26.99399628556702
H           21.66558925620118       -1.41880591921124       18.79516126934487
H           20.34566346582978       -2.35721079822995       20.64420792430398
H           23.53470282397518       -1.72358304303653       23.39241856481708
