151
 energy: -221.320310199463 gnorm: 0.005601125357 xtb: 6.7.1 (edcfbbe)
C           29.98519248864908       -0.15374768950082       19.61456707778637
N           28.31073283437460        0.56401037328171       17.44366497698869
O           29.43717451440130       -2.02889448822469       18.11248226133950
C           28.91870202115451       -1.09904612483488       19.06254609927957
N           26.15103476246642       -2.81724316536740       19.45563607870814
O           24.20682968614957        0.08534397232630       23.99958036926636
C           30.37526562409872       -2.95199307040700       18.62275497550604
N           22.31492789297481       -1.14485504368565       26.74344382931208
O           14.39655093595472       -6.27807170954278       21.36412202645808
C           27.85161676886952       -0.31968362384765       18.31790993870604
N           21.03000942487099       -0.95716786292861       27.26503246788845
O           15.83778960035345       -5.77416924107972       26.89075654900003
C           27.45848672991123        1.28295646095785       16.73596205165356
N           19.44746660241922       -4.25655316700029       27.24422097889362
O           20.32123219322082       -5.24375147641631       29.07921292406624
C           26.08305035442132        1.16412323304916       16.86134888040744
N           17.86397228940748       -6.69327801924402       27.25148010846448
O           22.34373555123087       -5.48536266147413       26.33388786165126
C           25.59352696967262        0.24693683328200       17.77207467724416
N           14.89356159260143       -7.80364823728443       22.96772767498888
O           18.99095228453083       -1.74289889761845       27.77113161441152
C           26.47898866045175       -0.52458048580684       18.52541707647976
N            9.66463406642227       -7.93879792032835       24.07049853331911
O           24.94538227622996       -0.62888331335668       25.99494947236054
C           25.93468018224767       -1.45655770547508       19.51751792152152
N           23.48594983585730       -4.30057989992754       24.06886333519796
C           26.67213720701857       -3.53331404727717       18.31761117600145
C           25.55918188539497       -3.90372910221499       17.33904088915086
C           25.16543604344410       -1.14567849571235       20.61766643409228
C           24.67722972574628        0.19504210371160       21.06396531292848
C           25.53932722184230        0.90077264022082       22.13548019467989
C           24.96363539450523        2.29881285799824       22.37618153445933
C           26.98706232962438        1.01177549018524       21.65862430392461
C           25.53593352208754        0.11913226487358       23.45602652398976
C           24.04917558477042       -0.30219252784837       25.24878137148173
C           22.58868110579521       -0.20181914951424       25.66109189968533
C           20.13089068521245       -1.94811128852276       27.35508728691542
C           20.56410677060250       -3.36965979398406       26.98797770804783
C           19.39360710996381       -5.08241587690829       28.30014962339508
C           18.05239368786298       -5.82006165461507       28.40910067806407
C           17.86493152430571       -6.52088610092884       29.77157389718137
C           18.62045787720383       -7.84007813810611       29.91275927618502
C           16.37797807648059       -6.73615854992282       30.04553407697435
C           16.69586722620410       -6.61058269566569       26.60225485120209
C           16.39176219781970       -7.52751240555672       25.40291108952342
C           16.78828143587235       -6.79284885455975       24.11623425238225
C           16.31536631218259       -7.56339576548577       22.88118533078338
C           14.03429628738679       -7.06961349184330       22.23703256493683
C           12.63554308092087       -7.29096654829715       22.49638401370775
C           11.43786952677512       -7.32692688513232       22.61765569108574
C            9.98492587013709       -7.41423308879651       22.73712815521174
C            8.26592514122050       -8.24372997280261       24.29301063523605
C           10.18459944895470       -7.13279732471117       25.15814504322570
C            9.41054511043796       -6.01310903676089       22.43844821794737
C            9.52521357076403       -8.39887541451913       21.64769308436249
C           14.51463285676470       -8.60420460220171       24.10705602175480
C           14.90147489004498       -7.88557595017446       25.40146273906734
C           18.97768374615305       -7.53210684270128       26.84693299465318
C           21.04275788596915       -3.54174148769914       25.54507383786389
C           21.52058716377313       -4.98319121941523       25.29155741351455
C           22.25807496789613       -5.06039659379028       23.94863642589901
C           24.34340531298171       -4.88779064761361       25.08301854977444
C           23.60028578547702       -4.83402797161684       26.41560448404842
C           20.71146514476508        0.38498658857954       27.73623221980646
C           20.90212462105803        1.38487461261561       26.60042274373017
C           22.32577640984607        1.26372982406491       26.06368505688961
C           24.89207990594785       -2.38105519745160       21.27271335935761
C           25.51703602314783       -3.40165808061300       20.51521231988763
C           25.44506082404975       -4.73515912252396       20.90665042933049
C           24.77343409645389       -5.03225973751374       22.07127841284822
C           24.15111520231363       -4.03029445642484       22.83202109477922
C           24.18311335896502       -2.71553077413595       22.42471354452593
F           17.09360040783536       -8.73552769835144       25.46624746969987
H           30.69768259536791       -0.69548217268681       20.22990992900358
H           30.50170465270327        0.32111646403107       18.78599672690375
H           29.50834023089370        0.61070585724398       20.22047977045424
H           28.46043073679746       -1.66207199639451       19.89301023103788
H           31.33728487437417       -2.47797165679402       18.83024225810673
H           29.99888149712934       -3.42896287079876       19.53451277906164
H           30.50314171296678       -3.70035681948757       17.84373614559146
H           27.90508376663659        1.98302320084416       16.04363126103063
H           25.42216800209513        1.76972093337423       16.26235545450144
H           24.52987543059887        0.10771213732186       17.89770871662022
H           27.41465215526195       -2.91305718171994       17.81285320568400
H           27.16827382879967       -4.43691929253306       18.68059140876323
H           25.97531357722869       -4.45533429428081       16.50169112356619
H           24.80785193829441       -4.51803922698227       17.82937573949824
H           25.07918546277164       -3.00442017520007       16.95995063879347
H           24.62231139006760        0.86191071729556       20.20279045888358
H           23.67071074301111        0.07313503780099       21.46847096229429
H           23.91727914704737        2.23228309068935       22.66075879279132
H           25.50864766598790        2.80341874400887       23.17001671059916
H           25.04045391344279        2.89703635059396       21.47237875806169
H           27.58313845199836        1.57473513141434       22.37216319599166
H           27.42458742861608        0.02379657195053       21.54312241214783
H           27.02419728159168        1.51944387665633       20.69787745123604
H           26.19991511633246        0.59045833945323       24.18863155617220
H           25.87177840458882       -0.91049033426822       23.30219660443011
H           21.95392560832294       -0.46257306937697       24.80929631259307
H           23.01992183049717       -1.02273812892019       27.47367151108082
H           21.35551340908920       -3.67346027142955       27.68212314756749
H           18.59417469183202       -4.04333427840232       26.74756052492929
H           17.26722912153436       -5.05587003663909       28.33455079140193
H           18.26606228824872       -5.82148672426784       30.51413754723531
H           19.67278258396508       -7.70450395238055       29.68187827271851
H           18.54005738690038       -8.18924611235409       30.93905272672964
H           18.19479631103255       -8.60028535669570       29.26427318481754
H           16.23967932478908       -7.20265772998670       31.01653454689767
H           15.84034809549143       -5.79102964678179       30.03305012170123
H           15.94123438512557       -7.38092652830131       29.28576754631782
H           16.31865495822390       -5.80832930877108       24.13946100719015
H           17.87014001038185       -6.66626817424765       24.07563026413110
H           16.83095346168782       -8.52595294597900       22.82214728962143
H           16.50989817828271       -6.98402005687210       21.97733000410915
H            7.61958542455346       -7.35326041573571       24.28537140383270
H            7.91106216839338       -8.94967548360797       23.54837155502559
H            8.18059767485707       -8.71204060547822       25.27265934105323
H           11.21381571188512       -6.84911408843519       24.94724531476908
H            9.59619021658170       -6.22075486753290       25.34032219787835
H           10.16820443060717       -7.73276207045345       26.06782401702748
H            9.76102975106616       -5.28783725443550       23.16859538143773
H            9.73720394532227       -5.69053924388962       21.45339929994148
H            8.32425687281904       -6.04269141601291       22.45537870350441
H           10.02636699386199       -8.15948009189529       20.71327983117308
H            9.78434695093332       -9.41372930245908       21.93496617253680
H            8.45328832440941       -8.32485340727141       21.49125636721384
H           13.44052438000692       -8.78761148205074       24.08571158969577
H           15.04663595905597       -9.55867098460074       24.04741099900920
H           14.69401994031499       -8.52972140374988       26.25648453877647
H           14.33210928885308       -6.96295398074577       25.51651501357750
H           19.87789843805524       -7.18152489190318       27.34382546991481
H           18.81272500292990       -8.57542944892296       27.11196188175982
H           19.13325924666627       -7.47160718717753       25.77146973395289
H           20.22777027376980       -3.32018346266571       24.85665357735398
H           21.87236962918730       -2.86623488526393       25.35282331994691
H           20.66448917917256       -5.66387391239031       25.28754302503455
H           21.64716970331045       -4.62000341355491       23.15929162682000
H           22.44643831627817       -6.12168658623365       23.70375737710362
H           24.60375101736383       -5.93674420849029       24.85386287629891
H           25.26083616197448       -4.30068935800861       25.15176556008665
H           23.47562326630261       -3.78625002768151       26.71369919537894
H           24.15005741200857       -5.36742478324721       27.19250670872376
H           19.68219682905492        0.36880786635225       28.09263227808136
H           21.37986270912971        0.62424817597852       28.57056090668983
H           20.71839228121192        2.39366447024935       26.96693455815494
H           20.18622945512770        1.16785322064457       25.80632017486233
H           23.04188135506146        1.55646147532235       26.83600023487388
H           22.46912404725584        1.90823343094111       25.19701634753585
H           25.90920645908470       -5.51931301490396       20.32856702625988
H           24.71867139459213       -6.05698770542548       22.40927683199656
H           23.66718443208322       -1.97186562525408       23.00794847735545
