151
 energy: -221.325525597166 gnorm: 0.008335048859 xtb: 6.7.1 (edcfbbe)
C           28.72089122000685       -1.00814321056325       18.87432469095903
N           26.84410802176282       -0.07128871718003       16.96961058448055
O           27.82745141737464       -2.78912528296786       17.43080983261267
C           27.51278006818436       -1.84412854513283       18.45267044513537
N           24.63406272314245       -3.39939628544058       19.08816399577633
O           23.01027129921199       -0.31704451191139       23.67464109223243
C           28.60319118563940       -3.88988893411855       17.85108399012621
N           20.74138836149765       -1.46187476659695       26.19030644781740
O           18.86087831219078       -7.24594786823346       22.90207759400408
C           26.43020627792162       -0.96415510480703       17.85710226191288
N           19.35821012225468       -1.42858548896486       26.39329617047795
O           16.22730287842538       -6.40612611319359       27.08910204947789
C           25.96276334397100        0.71093533199772       16.37362056438781
N           18.62027744690159       -4.80529699773798       27.41984690971461
O           19.98633733662112       -5.09396983822559       29.19936467984990
C           24.60142286161496        0.64859135311523       16.62746494740441
N           17.71288278756078       -7.40652331843438       28.45067067539019
O           21.71379978955448       -5.58026325679371       26.54106306359955
C           24.16060380496706       -0.27222938242058       17.55952932578996
N           16.97169588182290       -7.93362208508422       23.94430996339729
O           17.43265213702236       -2.54277215241503       26.69705468083263
C           25.07814447983246       -1.10626235039693       18.19944122029190
N           15.33103333222251       -2.71969302881543       22.94259216283045
O           23.38436868800898       -0.97632464259955       25.78215095676680
C           24.58911785901369       -2.02961532435159       19.22889049001821
N           22.38743446696799       -4.78397071571297       23.93776011330267
C           24.93565261632614       -4.10754989999728       17.86925340820018
C           23.67937044990590       -4.31923221598039       17.02628651290943
C           24.01611293290703       -1.68704847404779       20.43386349132017
C           23.73336030979800       -0.30081865922068       20.91976798283015
C           24.67957274787166        0.27283435591825       22.00041456100368
C           24.44088003713694        1.78351113793062       22.09265885386046
C           26.13761921126266        0.00053616408551       21.63134755138450
C           24.41435166476879       -0.35407934798153       23.37502885579793
C           22.62851546104735       -0.69708240189873       24.87762853622107
C           21.11309913517486       -0.71990250737220       24.99105626418828
C           18.65636332424536       -2.55504842489595       26.59179498686969
C           19.45336672807443       -3.85219149231423       26.72552046707448
C           18.92219498370069       -5.29179777993744       28.63149478989408
C           17.79502248372640       -6.16028595084185       29.21630255392125
C           17.93469885165781       -6.35235578118682       30.73278619324090
C           16.83674951371043       -7.27112637484058       31.26782847071554
C           17.84385084946341       -4.98873400755207       31.41771157334720
C           16.86936815380592       -7.41059019097198       27.41129964610679
C           16.64127508485401       -8.71176444994194       26.61834236221393
C           17.86903987208690       -9.17315591028453       25.80997675781574
C           17.56250431810637       -9.19892448573099       24.31213835864465
C           17.71769829837995       -7.01443550326912       23.31243841072205
C           17.13500383742904       -5.71994741053820       23.09450595784619
C           16.85275058474560       -4.57984611947447       22.82339086176151
C           16.62318336681490       -3.19460983576741       22.43288534166917
C           15.11165477136699       -1.30000690533708       22.75568936432783
C           15.04175437237821       -3.10852328204303       24.30910026178495
C           17.84078830609626       -2.38597250763517       22.93299814418338
C           16.59511772336745       -3.19752087471085       20.89166980875708
C           15.66371207390561       -7.67244905796983       24.50898599800151
C           15.40378647844768       -8.56283384891213       25.72765677592660
C           18.72063906077902       -8.41295581376269       28.70997549776765
C           19.90400745572980       -4.38158733119025       25.35942190433197
C           20.77375153613196       -5.64449072427006       25.48121687390107
C           21.50498820056803       -5.90643201574278       24.15581008489889
C           23.39832834823542       -4.74092050278950       24.98211393050003
C           22.71163164558881       -4.59218130932344       26.33687940193661
C           18.72413109585754       -0.11705517020580       26.43804808818310
C           19.04960727866127        0.66945611204921       25.17247961740212
C           20.56428658953423        0.72040088392558       24.98531792458810
C           23.68244270848252       -2.91575300460421       21.07545126722870
C           24.06621981621097       -3.96125630750571       20.19798394607400
C           23.84995441718796       -5.29493305446241       20.53070022918857
C           23.28507505430829       -5.58578397487475       21.75464586719660
C           22.91389261156253       -4.56291214542205       22.63954078457894
C           23.08466830473356       -3.23818784163395       22.28846714829479
F           16.33006764493065       -9.71733476802829       27.55965020461474
H           29.12175039798766       -0.49962393441784       18.00283470861945
H           28.41245128539911       -0.27221605539553       19.60973836806977
H           29.48864344547183       -1.63787367812951       19.31513759621773
H           27.11089444507516       -2.38460233896976       19.32622008872834
H           28.08372480396303       -4.45715276085152       18.63537308132076
H           28.72803343797692       -4.51338630128490       16.96648905784566
H           29.58623290219363       -3.58103013746516       18.21572225609317
H           26.37388266229386        1.41601626211581       15.66430523922276
H           23.91199368819233        1.29913780142237       16.11429382077286
H           23.11017838788274       -0.36591940574675       17.79326684101261
H           25.67382882667559       -3.53783031380377       17.30078650747854
H           25.37321342094399       -5.07332136848453       18.13429429848229
H           23.25975066093409       -3.36169645615966       16.72959230095164
H           23.92536982509683       -4.88477797213423       16.13357843834319
H           22.93019562567120       -4.86533904351610       17.59540389255667
H           23.78403935888261        0.37254288963337       20.06261912453554
H           22.71644800043984       -0.27290473960761       21.31475410084680
H           23.39663461584730        1.98827048256074       22.32537474007118
H           25.06212577195402        2.21990807919740       22.87240388467915
H           24.68996900420110        2.26325918959362       21.14751382818603
H           26.35875178480002        0.43703530727269       20.66157570148214
H           26.80699796282817        0.43230033687244       22.36920278832094
H           26.32450259594905       -1.06872143770644       21.57709859959740
H           24.94849230013918        0.18683994193872       24.15961456948556
H           24.73896498276294       -1.39895487193546       23.39812113682640
H           20.70792247863843       -1.25956013920670       24.12695360882515
H           21.23817338242058       -1.08065763869631       26.99693206224257
H           20.32458632401316       -3.67926218757496       27.36380416868378
H           17.68612530555358       -4.94206999170282       27.05309317671906
H           16.85173127944522       -5.63299294665062       29.02635766463047
H           18.92390607746764       -6.76419573629748       30.95272842971383
H           16.85003534746001       -8.24496743811770       30.78776789832074
H           16.96413772656820       -7.41020583240333       32.33766227183975
H           15.86067624222620       -6.82231763415774       31.09391932395982
H           18.64934791884176       -4.34143454997528       31.08292931721708
H           16.89341322392975       -4.50819457353044       31.19597653036343
H           17.92893668380254       -5.11112306656836       32.49395589678706
H           18.70824906986775       -8.49775487540369       25.98128882865617
H           18.15222817122198      -10.17161900998424       26.14282603278095
H           16.87238065567690      -10.00488920819359       24.06034694256241
H           18.48267272447136       -9.31756471764181       23.73956175279206
H           15.71032712625862       -0.67714135209432       23.43358517813046
H           15.32792659970161       -1.02240704321194       21.72870312168104
H           14.06057876120074       -1.09389076779513       22.94996032559782
H           15.71939503586591       -2.66793951482064       25.05495201974518
H           14.02628162001403       -2.79428176383329       24.54435917758044
H           15.09617858198301       -4.19152151424222       24.40127000509298
H           17.79669779715745       -2.28077650265997       24.01274819363698
H           18.75897996546188       -2.90514365733008       22.66997307488858
H           17.84905382555955       -1.40449185315824       22.46924885211968
H           17.41469286394510       -3.80327337519196       20.51483881354183
H           15.65507612180417       -3.61786908354304       20.54958899278058
H           16.70164618659611       -2.19142649456205       20.49960436799145
H           15.60262787758267       -6.62004513451611       24.80254830028052
H           14.88917663789944       -7.86482623295584       23.75782907773926
H           15.10115350811971       -9.56493848283499       25.42361873091812
H           14.59600723352780       -8.12619968916648       26.31460840724688
H           18.39784533260116       -9.38804782630556       28.36367694280508
H           19.66138491606634       -8.13643134062559       28.22454131398588
H           18.90064600788241       -8.47689162207985       29.77853089029333
H           19.03133614491617       -4.62371400191121       24.74988918616091
H           20.48818573219912       -3.61249148148059       24.85647749893619
H           20.14372252770453       -6.50451482764641       25.73461531907184
H           20.78478196681519       -5.98846236301357       23.34129009553647
H           22.04832542666288       -6.86311591851147       24.24603834132256
H           24.01268589538628       -5.65915768303552       24.97375918252142
H           24.05063230141590       -3.88132354666515       24.82060040372302
H           22.28283979132459       -3.58575747154696       26.40960767244960
H           23.42466418508423       -4.73482755269516       27.15014543426751
H           17.65290659576195       -0.28251994621120       26.55100228976186
H           19.09938548562129        0.41429373441187       27.31951717992500
H           18.64230923192508        1.67519329716211       25.26018517758152
H           18.59056670030977        0.18064264682116       24.31259937221796
H           21.02369690475185        1.28371776949548       25.80005306148054
H           20.82117538494087        1.19895556420861       24.04185937853511
H           24.12559392830204       -6.09287382445100       19.85765478098755
H           23.13144127379798       -6.61638116103716       22.04121350441735
H           22.74325230390731       -2.48168466432400       22.97156867736370
