151
 energy: -221.319603837738 gnorm: 0.008730041089 xtb: 6.7.1 (edcfbbe)
C           30.75901299814324       -1.14378312052926       18.81408216292026
N           30.36666824118129        1.63432536890740       18.90359514150035
O           29.17941287606692       -0.37019665180649       17.08957124262584
C           29.39717303589863       -0.52549523568448       18.48849943334425
N           26.00605483359341        0.39006790679485       18.99182269438308
O           25.84906454414522       -1.90404949360657       24.36089584976267
C           29.24213454486988       -1.57171378483418       16.35053186569730
N           23.11476564738101       -3.11232942884159       26.29677622214655
O           14.26767676232042      -11.59025954531439       23.89503418118632
C           29.30316417709048        0.86374191211171       19.08821325660513
N           22.44592202340499       -2.82057796861954       27.48993322796428
O           15.56799033296184       -5.41913177797370       25.34298161889720
C           30.37732734888955        2.85897286779173       19.39343475318888
N           19.06705556836170       -3.12122366848733       26.28784004310344
O           19.55860341795595       -4.95916241517388       27.48140845226410
C           29.33078707349352        3.38652733388158       20.13516306155208
N           16.77200714841705       -5.73307109117757       27.22547278793139
O           19.65692266697607       -2.51619050031432       23.56844082627407
C           28.21821282757523        2.58980415462171       20.33361237068332
N           13.98036979468142       -9.87107478930342       25.34830925377645
O           20.50459674523931       -2.34824320556356       28.52559411368400
C           28.17493443480337        1.30359342708231       19.79320601441792
N            9.24369990943245      -12.27026204684824       22.94456262636377
O           24.96564026889638       -3.95375981255603       24.52234336823586
C           26.93791874709678        0.53344092151678       19.99653548564393
N           21.74261552542880       -1.54949086277376       21.93079887063940
C           26.13343260720086        0.90717884129803       17.65062529208813
C           25.97549141414813       -0.16702085210689       16.57687870006658
C           26.43527081153093        0.05326960935360       21.18733830656384
C           27.12375253118804        0.05607051893913       22.51682583517827
C           27.75044391093677       -1.29015327579833       22.95119502322527
C           28.59777745966960       -1.06104751570720       24.20606263217092
C           28.62860522026718       -1.85639472552051       21.83660724418822
C           26.66747974479308       -2.33031685435680       23.25586780649664
C           25.04824117544820       -2.80330058047112       24.89435249772708
C           24.27734166505125       -2.25572724590783       26.08836155614058
C           21.11947369269581       -2.61760804024266       27.49979922681774
C           20.44043196277908       -2.69046332160573       26.12918393352610
C           18.72428860860263       -4.19540819336963       27.00248198116365
C           17.20784571677036       -4.33998772743043       27.19409607566150
C           16.74269405342074       -3.59639905918745       28.47091611806832
C           15.22348280683418       -3.69798554555446       28.59830846572273
C           17.16346681938509       -2.12845149585614       28.45141471754470
C           15.88137022338406       -6.12301942364177       26.30510468964637
C           15.21055276689630       -7.50354479103243       26.42598391633932
C           16.04066074613360       -8.58035142588285       25.72124582686036
C           15.33950060836641       -9.93282983097412       25.83930091521499
C           13.53496295195046      -10.77299086152342       24.45733117568906
C           12.11190477979440      -10.77401299968345       24.22432935423047
C           10.94737182010003      -10.99600532810043       24.00983704498396
C            9.50465919950828      -11.14054649696207       23.84713634493859
C            9.99666859036776      -12.23440695288227       21.70947780101877
C            7.84206323215025      -12.52397346693505       22.67876230140076
C            8.94351149546124      -11.45891982611381       25.24540325505632
C            8.94899288141025       -9.78658365200474       23.35911456804017
C           13.15237542168336       -8.85475959522678       25.95751785342977
C           13.80585049567964       -7.47813242708601       25.81541650279240
C           17.25187213726403       -6.54114484548701       28.32962375438589
C           20.46472983109771       -1.30178381605609       25.48264284205147
C           20.41657542688889       -1.38017549783816       23.95063566126814
C           21.83635118809231       -1.43753477665116       23.36841161397768
C           21.02715537314777       -2.75926136109125       21.57662460214862
C           19.61839630773240       -2.66711258314945       22.16479230911656
C           23.24045773963779       -2.82174359993019       28.70822138521804
C           24.40004062840904       -1.84167008925481       28.54933290581886
C           25.21268022426283       -2.21572610326475       27.31136396532272
C           25.11052766037689       -0.39374895764950       20.90990214722358
C           24.87895276823291       -0.16722138983257       19.53194336330808
C           23.63987171237426       -0.45624586210587       18.96938583146864
C           22.65065911342768       -0.95806618571716       19.78089636055422
C           22.85014853562209       -1.16837250120922       21.15908480337136
C           24.08353515211864       -0.88575249540393       21.71817644813703
F           15.04913083505821       -7.84749245820499       27.77413927077488
H           31.52969989692140       -0.61421967648871       18.26198745918073
H           30.96100844904581       -1.04306829825248       19.87553815272157
H           30.77858781829386       -2.19909687194167       18.55553312912858
H           28.59162555044372       -1.15465605494089       18.90261850636340
H           30.27033942380537       -1.93372414352620       16.24564932143262
H           28.63086565294039       -2.35511460197306       16.81847876661317
H           28.84402481521239       -1.33710526191411       15.36448557414644
H           31.26931221832564        3.43446385332314       19.18913911342950
H           29.38499367442694        4.38712324550225       20.53135310804369
H           27.37030306921468        2.95724010401776       20.89369237257203
H           25.38613286585063        1.69531150756162       17.49903990355643
H           27.12851864045736        1.34916901765576       17.56311657916138
H           24.93967234778934       -0.46780383654513       16.45562129072518
H           26.33855228500469        0.21983799672504       15.62909642055272
H           26.55883702811878       -1.04420749639491       16.83957600759177
H           27.92461596133764        0.79784622712379       22.48701240020568
H           26.40733468000767        0.35247588590078       23.28446549990017
H           27.98609676687848       -0.65128993185903       25.00607253266111
H           29.03035738000455       -1.99976059715928       24.54540095733812
H           29.40509338343538       -0.36525682927772       23.99342895783091
H           29.37144325732256       -1.12114305166461       21.54528086729901
H           29.13811151590798       -2.75667283822529       22.16927392264706
H           28.02557744601134       -2.10447542535842       20.96694594546810
H           27.11827121639554       -3.29552356882803       23.51337656737955
H           26.02178157086025       -2.47900546989348       22.38592111641846
H           23.92512836546868       -1.24455978510720       25.86113555968057
H           23.41661303579497       -4.08768674600383       26.27949072141582
H           20.98571976622962       -3.41121094628166       25.51307110033739
H           18.35995629515353       -2.56666871593272       25.83000411688346
H           16.70743084066972       -3.89737765405112       26.32595105543902
H           17.21463602131196       -4.07301962170456       29.33502595652084
H           14.74355144817109       -3.23677891215694       27.73779410876231
H           14.89424377634254       -4.73271499751246       28.65629431571711
H           14.89288147125786       -3.18561906884252       29.49690773448012
H           16.74696477210172       -1.62516516901400       29.32027986018151
H           18.24492063079026       -2.03202721330210       28.49605978760145
H           16.78989678445882       -1.63091504356962       27.55908498890666
H           16.14534589348402       -8.28780345399696       24.67695691145116
H           17.03543819974932       -8.65201815457924       26.16057576452090
H           15.31510246660975      -10.22971962369998       26.89377385081893
H           15.86656234776432      -10.69456410736491       25.26390471193750
H            9.87720425189930      -13.19394369964798       21.20733617502185
H            9.66340121873039      -11.44347957034154       21.01820177856449
H           11.05370898917532      -12.08858714247809       21.92602994735014
H            7.28675988986376      -12.58372312064359       23.61012991977862
H            7.38015446596458      -11.76613067870712       22.02829906992999
H            7.76646481776484      -13.48884230505833       22.17717803925310
H            7.86951306960962      -11.30361219286496       25.27658062335977
H            9.16767426903454      -12.49074546311146       25.49912861721506
H            9.40429067815949      -10.80719452014559       25.98370244689417
H            9.20761616593530       -9.00817518343078       24.07147307516600
H            9.37181422722606       -9.52433151547230       22.39211997731849
H            7.86690296677982       -9.83622896601035       23.27512547552741
H           12.17515335760085       -8.85731125319886       25.47047699129695
H           13.02214653191704       -9.08305698736137       27.02377022515909
H           13.19919907954746       -6.73120117454098       26.32837363822995
H           13.89253117879210       -7.19031228411586       24.76905162323841
H           18.24049997792994       -6.17880196022405       28.60073201656438
H           16.58491381378049       -6.46817493999532       29.19121440062128
H           17.33961958374301       -7.58328729091491       28.03798057446311
H           19.61892855590724       -0.73158222315934       25.86696881143732
H           21.37647240755463       -0.78309023190421       25.77289032983331
H           19.92812298631653       -0.48115771000115       23.54012827951008
H           22.38017772488346       -2.28615430604599       23.81913585447522
H           22.34054548141446       -0.50384765405803       23.61651909925671
H           20.97214873511072       -2.86607888609839       20.49578130382866
H           21.53348407671229       -3.64442025223587       21.99775538176746
H           19.05420894801885       -3.58172819858556       21.98091551737884
H           19.09565960972867       -1.80969065037579       21.71719614538591
H           22.57694458182967       -2.54134836030712       29.52557193459917
H           23.61671756408681       -3.83541519415914       28.88326365859493
H           25.03056147341144       -1.87191787930111       29.43689807170437
H           24.00102515648024       -0.83130583553892       28.44290559843694
H           25.65814301741880       -3.20252472269979       27.44898429812805
H           26.00821208762123       -1.49295686265575       27.13601205655973
H           23.43029087274000       -0.26766785412321       17.92926720756558
H           21.67727617612914       -1.15759081591821       19.36110114593312
H           24.25532744020138       -1.01147421388795       22.77345552273004
