151
 energy: -221.331446599017 gnorm: 0.003511726734 xtb: 6.7.1 (edcfbbe)
C           27.13333132037700       -2.08921785866941       17.38534424044515
N           25.62959783132305        0.21262591148620       16.90100147455996
O           24.89582210843820       -2.69278242245942       16.56305734174969
C           25.62508645441249       -2.08679026887347       17.62795829773964
N           22.68148813324827       -2.29010650183037       19.18022367669484
O           24.75540296744902       -1.43548149500027       24.57550260493927
C           25.14673425591284       -4.06872874085851       16.37872669159644
N           23.16385697998965       -2.48882154886356       27.58509897256094
O           19.37563313761893       -7.85448268471417       22.83590655859895
C           25.09775208524614       -0.66830422609306       17.73576208763353
N           22.51494176704731       -1.86151551066355       28.65378930177235
O           16.71705896913788       -4.57589453059962       27.01439649783411
C           25.21558091269619        1.46647603083184       16.92877707791759
N           19.21438171992969       -3.46162975220626       28.67792222396237
O           19.69544417705572       -5.37731065136972       29.76842199702846
C           24.24666227237736        1.92580750009081       17.80744531190919
N           17.02417759329085       -5.95277314386831       28.76013297190198
O           20.28807145758239       -5.45910908405216       26.45384602732181
C           23.68828920890964        1.01535889763383       18.68535444086149
N           17.35526871441474       -7.93276262482001       23.86550983018595
O           20.65354662724505       -1.55881329852534       29.87285119151856
C           24.10196482777290       -0.31640919179153       18.65770729846217
N           16.48802543180030       -7.47162582945997       18.39265010968122
O           24.99140027860563       -3.36048193765400       25.70177568810320
C           23.49679532596812       -1.26177561128981       19.60218286588790
N           21.27900067537140       -4.30531353329237       24.12095676404325
C           22.11278860514432       -2.43181468759159       17.86282351250839
C           20.78057036267149       -1.69059698525673       17.75711987774675
C           23.59327633918859       -1.25848082489298       20.97611140364500
C           24.36944871647147       -0.31975979564587       21.84381562556645
C           25.70699799480150       -0.86363258595417       22.40166030167422
C           26.46942739250375        0.29579420906694       23.04896963545484
C           26.54256779614077       -1.46548464329389       21.27192591339993
C           25.48852875115815       -1.95866804762875       23.45493579150404
C           24.57442327954093       -2.22639073431038       25.61679442089158
C           23.82269259602187       -1.50835746793673       26.72701383886952
C           21.23188315806564       -2.12633792287912       28.95352935384994
C           20.54420078367326       -3.23451255781837       28.15439980469653
C           18.87898460217290       -4.55786293005826       29.36391272671052
C           17.36721244553249       -4.76248497245807       29.55392745125186
C           16.99420768580349       -4.82487061772423       31.03854041768964
C           15.49004458350161       -5.01907015063685       31.21816755001733
C           17.43153994915686       -3.51481392445889       31.69629583404823
C           16.78620349630632       -5.72542298294816       27.46253050940779
C           16.62165457431020       -6.89060437364086       26.46128900120978
C           17.97389065093297       -7.56054122408831       26.20565798232773
C           17.88684437198919       -8.56015365837440       25.05290947496441
C           18.16217158940267       -7.62960981647874       22.83341970761065
C           17.53290289991029       -7.09158270697784       21.65350071676044
C           17.22776390501462       -6.76292799995392       20.53470498196688
C           16.80594054107397       -6.29524744878651       19.21509422219215
C           16.10738855284152       -7.17710994857220       17.02609645455988
C           15.53683632572955       -8.38558132836649       18.99227930734122
C           15.63465367192594       -5.30821311628191       19.40066781361771
C           18.01918050089258       -5.55677075741756       18.62259361308217
C           16.01995696824202       -7.41853998070463       24.04899866265676
C           16.02446399550962       -6.35697774366146       25.15339587763046
C           17.30677805619249       -7.23947452577089       29.36067571894575
C           20.44553812447114       -3.00926166495034       26.64363247931765
C           19.76599576995098       -4.22171322141760       25.98429477930610
C           19.88267406074025       -4.15089626781668       24.46082081531481
C           21.74630766024864       -5.62342695542219       24.50634919007931
C           21.61670478337230       -5.71705716364941       26.02508863627892
C           23.32909131490912       -0.99579109050404       29.49783553729757
C           24.04259253862148        0.05475422495687       28.65080641324530
C           24.80786635023993       -0.62820085092273       27.51849151872145
C           22.77657753675257       -2.33337984236086       21.42964408284870
C           22.23232927311902       -2.96052005868801       20.28220143999296
C           21.40719614429393       -4.07620079892629       20.38920951448680
C           21.11502931068803       -4.55081927116938       21.64900351628467
C           21.60266989163512       -3.90059396124343       22.79199646935509
C           22.41573885554399       -2.79446566264960       22.69143131757799
F           15.72194883309361       -7.84242027670430       26.97386830929150
H           27.62239306597398       -1.48084692408827       18.13821248241524
H           27.52933012375349       -3.09799302250575       17.44123509594267
H           27.33648805537111       -1.66958969442400       16.40585120748019
H           25.39719492952545       -2.62861834448810       18.56189833482303
H           25.08024111669370       -4.60995080808096       17.32775308122210
H           24.37384415358048       -4.42417713857927       15.70297239606177
H           26.12631237748194       -4.24378639033610       15.92914182877826
H           25.69035648090346        2.12589085729246       16.21545105357314
H           23.93940192087263        2.95887055869630       17.80060881155428
H           22.92460102349190        1.31644448323405       19.38762617754501
H           22.82013921163573       -2.04489144942197       17.12793806480044
H           21.96450437435118       -3.49657608517115       17.66914292768867
H           20.92625446983297       -0.62699834252221       17.93080240006135
H           20.36029350679874       -1.82759005806902       16.76553301576157
H           20.07728465066238       -2.06970717021227       18.49513407150211
H           24.60029976574569        0.57670738225035       21.26572359533895
H           23.74498191689822       -0.03087644618924       22.69138402255454
H           27.40639623791481       -0.05662634669769       23.47309132493926
H           26.69280864556045        1.06028802596057       22.31033573876206
H           25.87562520645643        0.74000265360013       23.84271066662559
H           27.52632970745423       -1.75371114396783       21.63276615710745
H           26.05356699216357       -2.34680629759580       20.86523244268654
H           26.66286430098264       -0.73903770237383       20.47251558504692
H           26.45056830453665       -2.33328936213385       23.82009057234424
H           24.93284268850037       -2.80384213558632       23.03899554715717
H           23.04906103744504       -0.87576025077845       26.28018155637282
H           23.85322173901979       -3.16358937011744       27.92053193906513
H           21.10433697670752       -4.15719244607060       28.35306631862059
H           18.49360425233494       -2.81977935062182       28.38428426391224
H           16.82635589868615       -3.93007814946259       29.09434242344513
H           17.54806886037297       -5.63991474188725       31.51106353926371
H           14.95645571455450       -4.15422134319636       30.83033835669076
H           15.13085464066631       -5.89919395366372       30.69239390785879
H           15.25399090675043       -5.12457945873682       32.27355159415959
H           17.19192411858906       -3.53473632637822       32.75566819411362
H           18.50346386465059       -3.36166187423328       31.58765000388788
H           16.92031952961430       -2.66894122529423       31.24251120863183
H           18.69975737159633       -6.78156213352719       25.97133908125161
H           18.32538540769906       -8.07609310601478       27.09636437664030
H           17.22353676649427       -9.38680005981679       25.32575788113410
H           18.87980548598225       -8.94844129476483       24.82034487488268
H           16.05523099362487       -8.12173697652487       16.48561505267291
H           15.12648400766955       -6.68555564921315       16.94508390919065
H           16.85979958722295       -6.55738369845871       16.54868088305482
H           15.82814676559528       -8.59697665884362       20.01909375486419
H           14.50330930831068       -8.00576100082768       18.98374252541017
H           15.55945491900101       -9.31757693485080       18.42734787316101
H           14.76268510561538       -5.81775950563703       19.80342259133512
H           15.92633638335365       -4.52265541574381       20.09230187205250
H           15.37526737619196       -4.85574025408779       18.44724097614026
H           17.73528037733410       -4.97969647522220       17.74771852468360
H           18.42571744632951       -4.87604198627396       19.36714905115003
H           18.78518563430886       -6.27781011632678       18.34996163275095
H           15.66572489546485       -6.98228706042972       23.11416655592560
H           15.36342992508397       -8.24549755349082       24.33640439383926
H           15.00783133639579       -6.01316459397794       25.34537886923730
H           16.62076552702754       -5.49762920340649       24.84551055048802
H           16.81541926632590       -7.29910448622877       30.32824988015917
H           16.93395949947706       -8.04900105037297       28.74673943226149
H           18.38475317797424       -7.33935446285663       29.50887421129513
H           19.84719145263154       -2.12280930237039       26.43632528233332
H           21.43745015644972       -2.88674528201560       26.21769925232361
H           18.70933915904309       -4.24753922204216       26.26756887439603
H           19.53022550450418       -3.18314918603842       24.10230234373183
H           19.25483737687553       -4.94395961216766       24.01096091142354
H           21.16828854731641       -6.43256316901566       24.02473982965909
H           22.79628765177756       -5.72172962247776       24.22578403182028
H           22.31212211340700       -5.00501014020771       26.48441011410122
H           21.84007395974688       -6.72436409625190       26.37893389547774
H           22.66170414459522       -0.53890637095470       30.22806579383443
H           24.06203867927332       -1.61875419327073       30.02370555939781
H           24.72682377920580        0.61825048639539       29.28349308639090
H           23.30851959633594        0.74434778559020       28.23314089407561
H           25.59941297782265       -1.26130696356283       27.92726543740182
H           25.25978283553129        0.10920452491284       26.85690320426501
H           21.00731202498025       -4.56808046399640       19.51588641068016
H           20.49519947564485       -5.42966571624856       21.76417772684404
H           22.73469741180495       -2.30128416760315       23.59385762237839
