151
 energy: -221.325655327451 gnorm: 0.007765632648 xtb: 6.7.1 (edcfbbe)
C           29.30288266815567       -1.88192074046331       18.23336844560644
N           28.59253936896753        0.77991606531564       17.80973360797079
O           27.23159155052201       -1.82236489176229       16.92307144163024
C           27.82876374872951       -1.48464987843067       18.17707804321395
N           24.57859589263603       -0.98140874797489       18.94874120309819
O           25.50930119146551       -1.09879263253294       24.60196952205231
C           26.89607499549842       -3.18524383840241       16.78475766504753
N           23.11806746841522       -2.04033810739488       27.07989467495974
O           15.94353545980472       -9.54774255316617       22.30697761860390
C           27.65296771346878        0.01235271992732       18.34281121701915
N           22.17797492038586       -1.41907489101347       27.90885766902849
O           16.04369471137701       -5.08684831801100       26.65421184777114
C           28.49366181852557        2.09297316278031       17.91285658942359
N           19.24672462299176       -3.54349697288629       27.49099756965894
O           20.02674229112577       -4.94720335197253       29.07327584775645
C           27.44699202200772        2.72615384934131       18.56540947617083
N           17.32301036414024       -6.07352243456655       28.22575205209781
O           21.00482105905171       -5.10851876992582       25.17441128665694
C           26.46366287962442        1.93384471293064       19.12939989341853
N           15.20398007814451       -9.09403883629759       24.39607747949608
O           20.09145115090130       -1.36868593990662       28.74170865599016
C           26.54781177380435        0.54661703430091       19.01991593283537
N           11.51173599100050       -9.94416202170463       20.09601347114000
O           25.38224934861737       -2.93441017496002       25.88508011781224
C           25.52019184426161       -0.27885606264154       19.66621978198919
N           21.99287670760692       -3.40232027624830       23.17827244508020
C           24.32463023580040       -0.84582487073985       17.53585588299781
C           23.39355573457775        0.33066170629886       17.24993327687561
C           25.33006464719124       -0.45693574242325       21.01816035087436
C           26.09535892938870        0.21126025207806       22.11720651818945
C           27.14916912907178       -0.63822006106991       22.86517145632560
C           27.97395951352391        0.29408003319796       23.75701955256559
C           28.06929050854882       -1.34570092964331       21.87236902687330
C           26.48844017202944       -1.70621731701934       23.74505362669953
C           25.00265588231171       -1.82424971874519       25.58130373022946
C           23.88779642594638       -1.07853508172950       26.29694911586106
C           20.91277317497671       -1.86102232478768       27.97671156688590
C           20.54601960570819       -3.05503192971936       27.08733506324174
C           19.08845642028393       -4.41713824864126       28.48756009602353
C           17.62688363126756       -4.76305617804927       28.79698457096740
C           17.35074242591350       -4.68722543992746       30.30564259437699
C           15.91981543662718       -5.11962922750785       30.61410074868312
C           17.57746527814269       -3.24852643803048       30.76981865755853
C           16.47371654833872       -6.11003673631481       27.19240948153041
C           16.01874172133911       -7.46463475943979       26.62549374786976
C           17.00926948316643       -7.95383717595813       25.56526115387826
C           16.51354629118018       -9.27574481097767       24.97755492707895
C           15.03210834017861       -9.22621255024480       23.07023496046926
C           13.70607996611377       -9.02603415621419       22.54921498800146
C           12.70821630651635       -8.97548823886574       21.87428760182110
C           11.47553037922225       -8.86936683713587       21.09705739141896
C           10.44247395836375       -9.92404834435179       19.12099956484499
C           11.66595220828969      -11.27165233221954       20.65711114191342
C           10.26785306229970       -8.92201334737178       22.05468806522740
C           11.52007859036392       -7.49712217717587       20.40250760711378
C           14.19660342588947       -8.64197695917766       25.32489227360660
C           14.62328971394363       -7.33654846626330       26.00534553871565
C           17.99822359741884       -7.20944052864308       28.81982068196540
C           20.53559287057072       -2.72406925079747       25.59597209150300
C           20.26465542649699       -3.97790787476558       24.74203770845180
C           20.57767986890228       -3.68437870507417       23.26422096859671
C           22.76412549549728       -4.57093834502938       23.56580499362391
C           22.40502213194679       -4.95858151661574       24.99798143869880
C           22.66052744868900       -0.35990628977202       28.78434677483933
C           23.36128488455742        0.70882394873812       27.94982553016776
C           24.48583846489252        0.05595266338901       27.14953408039772
C           24.20741936171870       -1.32634781313998       21.14516314212737
C           23.75421712084096       -1.61848304571515       19.83408593708893
C           22.64962821870448       -2.43653500284764       19.61987109919312
C           22.03955007343182       -3.01697277915311       20.71262943850564
C           22.49923379367476       -2.76504343349550       22.01329144947284
C           23.54485864054744       -1.89048841517681       22.22976408864885
F           15.92871052425434       -8.41322852642328       27.65170802524814
H           29.73413823649463       -1.55784753405780       19.17565642823172
H           29.40886158908167       -2.95968950688140       18.15196366937582
H           29.83116994538218       -1.40211062069249       17.41562482709981
H           27.26929077756670       -1.99670956506479       18.97579584571242
H           27.78112541826908       -3.82730678145496       16.80374281641180
H           26.20755932245509       -3.49864191981775       17.57952612493921
H           26.40651147716918       -3.27402568629178       15.81780692388139
H           29.29771843746951        2.65522947195966       17.45839313322789
H           27.40634268610322        3.80086371717306       18.63291921597553
H           25.62787318392628        2.37578682237233       19.65217615640338
H           25.27589405054983       -0.70775987489905       17.01760099916205
H           23.87161672612117       -1.77440825375451       17.18460998631786
H           23.20417092043327        0.39995455006664       16.18302451837904
H           22.44685820152303        0.19870382247796       17.76898099428875
H           23.84751177826266        1.26033295140320       17.58440138260028
H           26.62176970889796        1.06445528525016       21.68682868469011
H           25.38351756519479        0.58492176919592       22.85535061810434
H           28.51615774554912        1.01516150901049       23.15057579139971
H           27.32712511161655        0.83116652345187       24.44495999935058
H           28.69700235697352       -0.27662884365385       24.33501918622605
H           27.51031969069183       -2.06443405635167       21.27852837624805
H           28.51660475580930       -0.61740867440042       21.20001023798157
H           28.86373335980934       -1.87383675665307       22.39314198814495
H           27.23128710571369       -2.21763390374328       24.36507683248339
H           25.98189642040916       -2.45569617214585       23.12847638466750
H           23.21749732231167       -0.64399670876199       25.54490803064855
H           23.75561760511665       -2.62535266883264       27.62331656678072
H           21.26057052759693       -3.85840076615126       27.29616825967629
H           18.44022744188786       -3.06724006897240       27.11528261381322
H           16.97073253397438       -4.05363954074552       28.28379915887663
H           18.05852620498429       -5.33710416126186       30.82630238458368
H           15.73098398362652       -5.04295190947802       31.68120790707374
H           15.21633275924239       -4.47549768076345       30.08960613051799
H           15.73736863006047       -6.14569222782614       30.30455272294973
H           17.47429178430492       -3.18224309870429       31.84899079370396
H           18.57198414155509       -2.90138433844341       30.49577128768500
H           16.84930792427955       -2.58432559438500       30.31055746793113
H           17.05892594238940       -7.19308007262873       24.78374308865411
H           18.00825295814504       -8.08082804881294       25.98078904005826
H           16.44988707102450      -10.02983656861312       25.76867386089212
H           17.18674408644283       -9.62485614634814       24.19277765351301
H           10.42379790959020       -8.97105431271132       18.59932192333018
H           10.64886624282959      -10.70630497979075       18.38979679706948
H            9.45037999683170      -10.12074407255045       19.55547445224529
H           11.93897379897371      -11.95248838425166       19.85138324037020
H           12.47020987284808      -11.26617720655164       21.38926263411943
H           10.74851453334450      -11.65275299516394       21.13166962186365
H           10.34743778561744       -8.12131174970102       22.78453724897579
H            9.34471894440268       -8.79279770887219       21.49517396032947
H           10.23409292723548       -9.87131787966298       22.58381572730784
H           12.26850031057885       -7.50943092064872       19.61477157425573
H           10.55033517905072       -7.24793557182787       19.98139134409862
H           11.78812627480870       -6.73175013896818       21.12668530792098
H           13.25908831558256       -8.49249840543323       24.78968940844968
H           14.05729127097277       -9.41399111621250       26.08977788997968
H           13.90760206838858       -7.08630684641675       26.78892883767601
H           14.65263172611119       -6.51381628657602       25.29202814688880
H           17.39455782558681       -7.66411269068086       29.60661679140654
H           18.22407384382403       -7.96430175116422       28.07409554804054
H           18.93656834438056       -6.85707440629060       29.24270326143672
H           19.75910667927720       -1.98806478630769       25.38999138320386
H           21.50062968854617       -2.31375343696389       25.30852404953599
H           19.22067283876869       -4.28988520080528       24.84918311369594
H           20.01704879265573       -2.81280562137886       22.92582375789699
H           20.27850098421396       -4.56397301542482       22.66638988691096
H           22.56671564059123       -5.42397784607733       22.88793456621450
H           23.82798846033941       -4.33075959437882       23.52062563794759
H           22.80377059748501       -4.20116363784271       25.68276258241170
H           22.83106077316848       -5.93042824462374       25.24949478274414
H           21.79445288819911        0.03687775352698       29.31332357494244
H           23.35900823245234       -0.79216506354083       29.51039471031391
H           23.75893662547564        1.48174434171680       28.60569472280781
H           22.63964434120784        1.16546627234516       27.26993343025301
H           25.23353672857832       -0.35918874700020       27.82907160514501
H           24.97175185198539        0.77950978754264       26.49730783990849
H           22.28168268525615       -2.63531116625197       18.62481080320513
H           21.19933530257146       -3.67907115556384       20.56644175627621
H           23.82824551997050       -1.66759166886697       23.24155070939547
