151
 energy: -221.322150892123 gnorm: 0.009916869324 xtb: 6.7.1 (edcfbbe)
C           29.27140976546085       -1.75267082002049       18.32971198575338
N           28.18423558542499        0.69548960154081       17.49950257216842
O           27.25023641064759       -2.12773682963241       16.97685638386748
C           27.75919709361371       -1.57786363872255       18.19111286576372
N           24.53391678398174       -1.41021890092544       19.00014698234360
O           25.48786361894831       -0.87279790778838       24.68437905106976
C           27.26545230281527       -3.53682091459802       16.92130901911992
N           23.18444237271211       -1.86268558024505       27.22487349805256
O           15.98221989184573      -10.27557771537218       22.68945030531254
C           27.38833698846157       -0.10806843496826       18.18865756041788
N           22.23606467523789       -1.24462381696394       28.04827072237578
O           16.03066224469922       -5.40832115446596       26.27878640258706
C           27.92432843418892        1.99108595152146       17.46722038659958
N           19.29190393815555       -3.37364471235050       27.61102335608746
O           19.95773021560282       -5.17244031463287       28.79268731253234
C           26.86318156493098        2.56908102819144       18.14651553977145
N           17.31273857639516       -6.22409376505177       27.94287788339866
O           21.10379319142072       -5.13106718891479       25.57165903824859
C           26.02329544728067        1.73675743585192       18.86420700282204
N           15.62501080716677       -8.33611002012330       23.81264413192527
O           20.13575094279720       -1.15522246597868       28.83968908064861
C           26.26680492386780        0.36454067494673       18.88503157703011
N           11.22689557870601       -7.92849637796225       20.88118023749917
O           25.48446565228859       -2.69115579768444       25.99540383847802
C           25.36809081693618       -0.51751956867459       19.63775980267422
N           22.15029975597199       -3.62894938230599       23.45579112874180
C           24.25575367845415       -1.42891952401704       17.58559213192536
C           23.16511813389349       -0.41991671543234       17.22541325272064
C           25.20553836956932       -0.59565757098711       21.00263790844565
C           25.85330597208005        0.26371874155967       22.04172610640660
C           27.01076855885140       -0.36029942341887       22.85500908157584
C           27.68848164773027        0.75387144932094       23.65798770260587
C           28.02379489394029       -1.01676467576766       21.91877367613525
C           26.50475407365500       -1.42891523280793       23.83319633880588
C           25.04620610849994       -1.60339505988921       25.68996196287502
C           23.93842332759573       -0.88538331682642       26.44811730033986
C           20.96760044991012       -1.68189658881123       28.11048583894783
C           20.61941745040755       -2.91399764796847       27.27315604110118
C           19.06481175586530       -4.50184167354918       28.29334749860611
C           17.57958628269858       -4.86534236256403       28.40768105215599
C           17.09218721744603       -4.65240857411994       29.85720104261755
C           15.64306315120784       -5.11381494932573       29.99686094033395
C           17.22156904483760       -3.17515788883250       30.22659818200721
C           16.43813872184304       -6.36790171066498       26.93608891460328
C           15.84947647698158       -7.76542577525807       26.63946361727297
C           16.78702566462990       -8.73804352039816       25.91836839949270
C           16.92563726336630       -8.36259254362503       24.44230180490440
C           15.23837488403508       -9.34444106413960       23.00498016701475
C           13.91504714952570       -9.25274631685185       22.44675811418755
C           12.88618242871126       -9.40910539937678       21.83450439297351
C           11.65615522477318       -9.32794458233300       21.04248712348915
C           10.73490990351048       -7.32534643204101       22.10722310978515
C           12.22216454706617       -7.07811712976792       20.25361890706525
C           11.94688490633119       -9.94266375802175       19.66089571882295
C           10.54656054506663      -10.15403973774798       21.71203108026084
C           14.72845542119224       -7.36179616586104       24.38621903136047
C           14.52233853616240       -7.65053524678276       25.87458052343818
C           18.06847275437191       -7.29496305334049       28.56098868642924
C           20.69311033008056       -2.70577186487930       25.75996596099372
C           20.39430379226133       -4.02744908224529       25.02562455116412
C           20.73088810661755       -3.88740543267157       23.53535632293805
C           22.89929515837242       -4.76966633600204       23.95511286895326
C           22.50858869373359       -5.01904246149943       25.41051470754541
C           22.72241566164830       -0.20729334973712       28.94941807972618
C           23.46075168138923        0.86623958762085       28.15720575191359
C           24.56297267458194        0.21775388126326       27.32305979251006
C           24.21075288621105       -1.59308944875397       21.22316103106647
C           23.80161163228004       -2.06423797288355       19.94905208989907
C           22.80446625919124       -3.02518587474844       19.82098286423408
C           22.24614300503781       -3.54435065990578       20.96932963319378
C           22.65584694247254       -3.10357673902225       22.23470651591481
C           23.60963001157369       -2.11585320678704       22.36220497836239
F           15.50658036128856       -8.34389872185545       27.88320759084122
H           29.52741909824817       -2.79975621708492       18.45724888355242
H           29.75696673903978       -1.36212778593926       17.44062013168612
H           29.61838994922933       -1.19951979761011       19.19655675100767
H           27.24872729220264       -2.07344789569376       19.03342725541323
H           26.65795338390661       -3.81039981416700       16.05711867855485
H           28.27971040298737       -3.92602687487846       16.78805589112025
H           26.82569569386173       -3.96703349882825       17.83188376188697
H           28.60962857632099        2.58695113009335       16.88046427253310
H           26.70058393918217        3.63428946096468       18.10794740514570
H           25.17166730396962        2.13324230274755       19.39848354285558
H           25.17441014652349       -1.20337808141191       17.04031485542209
H           23.93683050432461       -2.43812567971735       17.31562381515804
H           22.25831949303710       -0.62877232678197       17.78849065606407
H           23.49451511787582        0.58953686454021       17.45873119182604
H           22.94375432430289       -0.47821904637855       16.16418023429116
H           26.25157292530809        1.15252788325103       21.54658443472329
H           25.08424363507435        0.58322181356219       22.74821328651869
H           28.09907036427152        1.50625650806128       22.99080475677054
H           26.96953109401712        1.22850603619237       24.31983395349497
H           28.49906001611052        0.34927148625334       24.26032366806222
H           28.39111246348723       -0.28856689961297       21.20387213605876
H           28.86675471218167       -1.41028539118876       22.47657192275189
H           27.56472166282344       -1.82804970708642       21.37045256080194
H           27.32254052369989       -1.79706128054039       24.46147239425266
H           26.07742240846144       -2.28117197395802       23.29626931421726
H           23.25664044663629       -0.42607425067690       25.72375912193131
H           23.83696067314178       -2.42050667037945       27.78084455868310
H           21.30191629848312       -3.71730589390203       27.57358838679894
H           18.51820928938497       -2.82037807585797       27.27945241144238
H           16.99790568848992       -4.21138796918424       27.75139937416580
H           17.72618622703955       -5.23473591038586       30.53423330473458
H           15.55072530449748       -6.18405590217214       29.82509859964671
H           15.27724993283613       -4.89366063623526       30.99576102718278
H           15.01543400328973       -4.59541604402527       29.27339980085558
H           18.24782999218132       -2.82771639371224       30.12727829003337
H           16.58871579349284       -2.56553494820340       29.58557798089068
H           16.90869926804746       -3.02754410438968       31.25751017051945
H           17.76641031538427       -8.77667096231310       26.38828343968056
H           16.32886240782448       -9.72777857531729       25.98761548499199
H           17.53489717713162       -9.10519130297422       23.92385285575102
H           17.38337374271490       -7.37356878078373       24.34230161687424
H           10.55235202772592       -6.26868794901487       21.91916619285399
H            9.79038026474602       -7.78448174004282       22.39413018635770
H           11.44653145349416       -7.40876316617145       22.94422626959747
H           13.12991027734873       -6.95495636043726       20.86203500995151
H           12.50306867673852       -7.48161244594130       19.28589695496879
H           11.77750773055070       -6.09863267860690       20.09259174130345
H           11.14233793256271       -9.68200743469158       18.97924986750394
H           12.89231970360001       -9.58763730095807       19.25836402032689
H           12.00874558335030      -11.02394566126561       19.74585744289723
H            9.60888839762535       -9.97245458012618       21.18985072852841
H           10.78893956298424      -11.21270787190521       21.64357118575305
H           10.43418955858312       -9.89747957579642       22.76228659651947
H           15.16509169363919       -6.36526642367898       24.26924426794848
H           13.77064703641655       -7.40466072742026       23.86399673594160
H           14.00221991140033       -8.60414739176814       25.99496520890168
H           13.91568044273533       -6.86182998296353       26.31800021876692
H           18.43212612402874       -6.95150838868691       29.52416884574668
H           17.46725740566593       -8.18476253832094       28.71332082635948
H           18.94468266499668       -7.53109424847047       27.95194442352663
H           19.96170451764591       -1.95947363004132       25.44943191377480
H           21.68846141355795       -2.37061323388568       25.47571271959617
H           19.34255870427857       -4.30437186978163       25.15115934809636
H           20.18844954274834       -3.04695691194028       23.10147997203269
H           20.43484657350508       -4.81769173444623       23.02045645510563
H           22.69345772523729       -5.67491021369120       23.35258700491024
H           23.96669519417060       -4.54967722821043       23.90562944513071
H           22.90704333627123       -4.20773256546289       26.03052438963205
H           22.91428685251621       -5.96890311061039       25.76138186731279
H           21.85344638811236        0.19706327763731       29.46877281099567
H           23.39481156285037       -0.66895618806431       29.68301397197712
H           23.88853957234193        1.59513517789070       28.84507135783287
H           22.75699672952401        1.37959602516477       27.50039398733289
H           25.31856170557435       -0.22541853975211       27.97729927736909
H           25.04727159961263        0.95579995865143       26.68341268324542
H           22.47233479564576       -3.36916843798229       18.85336392654784
H           21.48064890528190       -4.30230177867109       20.89575435044679
H           23.85464678146055       -1.76538657762727       23.34844756331808
