151
 energy: -221.320157526370 gnorm: 0.003966811458 xtb: 6.7.1 (edcfbbe)
C           30.15916002120486       -0.73211817608113       19.12827857598969
N           28.75307685185257        1.46821505731563       18.02878463782592
O           28.60727951999689       -1.39898055403313       17.34354493457022
C           28.70959824182597       -0.85609159901029       18.66032239428154
N           25.53485918773495       -1.43931117445421       19.10701476651647
O           25.59261676565545       -0.59774809687731       24.78229663796088
C           28.82531039268628       -2.78957947826337       17.25887530698204
N           23.48688238592030       -2.20905160663205       27.16729834771936
O           13.88137253910946       -8.87381480495803       21.38588808809794
C           28.04504759939308        0.50704823890089       18.60179354443113
N           22.46394867393954       -1.81603623828476       28.03886560320394
O           16.30575638717158       -4.74421525403412       25.35849692794568
C           28.23949926922366        2.68151814059645       17.92852166923473
N           19.40180936918138       -3.55347019551244       27.00257446742864
O           19.43861774952025       -5.22901408562172       28.51551251217523
C           26.98123100921162        3.01359771646254       18.40525068020267
N           16.77295972898525       -5.67517262278345       27.35651863174423
O           21.86780648967004       -5.53071446386992       25.34639360769964
C           26.23436527795436        2.01727105273320       19.00700043816160
N           14.35817497887275       -8.59627329250225       23.58498029003648
O           20.30797631332668       -1.74194893992198       28.62742799624951
C           26.75659031296345        0.72879116743967       19.11158177813642
N            8.96492996453112      -10.08158774627713       22.00818955768180
O           25.98962964723254       -2.45418842671327       25.97672122096433
C           25.97097973056242       -0.31487023326313       19.77642465383823
N           23.04587687590591       -3.98747449208859       23.33521547145114
C           25.47455422956248       -1.56825999415023       17.67143038898917
C           24.21998575978969       -0.89499251287334       17.11700397112701
C           25.58471725561817       -0.36024150311659       21.09657710212674
C           25.81010639711653        0.67981360409566       22.14680432115271
C           27.00012626370201        0.43987412281709       23.10362617734618
C           27.15035920271146        1.66959259960206       24.00338744540752
C           28.28532020030297        0.22339591768501       22.30645615853549
C           26.76376094957769       -0.79839665501795       23.97767190821784
C           25.31919071560441       -1.47724930998819       25.72597032805260
C           24.09190212081443       -1.04926244850439       26.51317434665334
C           21.18585046985082       -2.21222197435921       27.90960386335837
C           20.83521202645939       -3.34404244212512       26.93212149708856
C           18.81647799184269       -4.42664471892383       27.83199517550159
C           17.27956893761574       -4.38065417070234       27.81436887447600
C           16.73917460041248       -3.93884765820049       29.18564951373038
C           15.21885579054335       -4.06849433368372       29.23808710090655
C           17.15184173039350       -2.48947564954875       29.43735737565016
C           16.38029755989407       -5.74389728056602       26.07749892093537
C           15.93338981681888       -7.08043472566393       25.45860213457055
C           16.24960740682078       -7.07979160235553       23.96054000154873
C           15.76511799557534       -8.38008610780648       23.32983632661396
C           13.53187652696348       -8.90306075272904       22.56801543563044
C           12.20074690276930       -9.32172048926721       22.92132815525408
C           11.10003005920857       -9.80708640409971       22.99330391163379
C            9.78799286055373      -10.42229996035600       23.17632010116855
C            7.65415761859381      -10.69582845443480       21.97378431706931
C            8.86299078513171       -8.66069494626741       21.74846654878954
C           10.04244473568240      -11.94022252057496       23.21740516517451
C            9.20749154135274       -9.95923966921926       24.52810571224396
C           13.98138275206102       -8.59673198104095       24.97969859278241
C           14.42912192672041       -7.29836514510030       25.66018794186989
C           16.93433822622591       -6.81346556325706       28.23822196432814
C           21.23581272428327       -3.15252123145738       25.47044790143435
C           21.14254937513326       -4.48808258624636       24.71007162663873
C           21.63644088764273       -4.31041748501648       23.26781013580211
C           23.78570043515909       -5.10357404022901       23.89298960397582
C           23.27569278147619       -5.34249168537757       25.31305664041263
C           22.83795709428956       -0.85504813427704       29.06901062878520
C           23.37718401766423        0.41175746869487       28.41256311080064
C           24.54900240666843        0.03557512736054       27.51044217257409
C           24.86636575303632       -1.58207251635909       21.25556410812102
C           24.84713477418243       -2.22293130591706       19.99099753177662
C           24.21639758947095       -3.45025933715504       19.81539482352458
C           23.62266077657440       -4.04206244288277       20.90985988059962
C           23.62584580169703       -3.41456248258962       22.16374736123192
C           24.22475357683192       -2.18437939688627       22.33325829620807
F           16.62522349362983       -8.16160416400489       26.01435894576401
H           30.70779374536763       -0.12047233155256       18.41922641111494
H           30.18582666244054       -0.26044727228822       20.10551643242048
H           30.62199210697403       -1.71260472015744       19.19934682624415
H           28.14947472974051       -1.50637265480660       19.35129274358505
H           29.86008489512213       -3.05559864794766       17.48672271817613
H           28.15570163352305       -3.33036321026851       17.93805042014614
H           28.60175778855357       -3.06217545414676       16.22982703770962
H           28.87378544065760        3.41256642513139       17.44663281383763
H           26.59856486290172        4.01597616131009       18.30559684984113
H           25.24298520570873        2.21984913770198       19.38545297312807
H           26.36603009700614       -1.11402986126761       17.23414780902322
H           25.47112780457747       -2.63151019918834       17.42181358538404
H           23.33044645964522       -1.31354357636731       17.58297434507200
H           24.24759293113644        0.17344036216196       17.31795472966409
H           24.16084234165141       -1.04642356480688       16.04363855536396
H           25.98148815248388        1.63886053224614       21.65571415234839
H           24.90459893588142        0.75961853272327       22.75063607963720
H           26.22733679559055        1.85632415924277       24.54519766305948
H           27.95177235930706        1.52027888056236       24.72272633110226
H           27.38505606411269        2.54568663621975       23.40485257358410
H           29.13870064523115        0.12652943317837       22.97298110630333
H           28.21171945371410       -0.67737039226859       21.70343832544576
H           28.45690090463287        1.06800810975587       21.64373386952341
H           27.61526085577592       -0.97726982350263       24.64179346626516
H           26.61653980470135       -1.68989051926383       23.36175320145768
H           23.35288356699848       -0.62242401682527       25.82781216992106
H           24.21027111010449       -2.71898703136696       27.67782683652104
H           21.30561210413838       -4.25636812772357       27.32164416868741
H           18.83123301562628       -2.84915212339388       26.55822586232372
H           16.94504501173749       -3.65995686316316       27.06224728984509
H           17.19654437156943       -4.55705324453633       29.96458993697690
H           14.90193911812887       -5.09954485711309       29.11362805598661
H           14.85368002310275       -3.70834634419221       30.19607520637075
H           14.76758874178127       -3.47175974481439       28.44844174886063
H           18.23235024725131       -2.37368617805080       29.39784788845270
H           16.70841517400309       -1.83221007446611       28.69336074760749
H           16.81092486220116       -2.17484088443504       30.41973739442982
H           15.76668288570831       -6.21579649969758       23.50661367208645
H           17.32713174100422       -6.98572136617561       23.82105611627125
H           16.33231565868609       -9.21918145801066       23.75067280914475
H           15.90818983209049       -8.35998334955767       22.24802671385925
H            7.23848714053332      -10.53625370617219       20.97916816972982
H            7.73232004483309      -11.76553153977529       22.13866218699069
H            6.95513329249888      -10.26527528982546       22.70692627915250
H            8.20402674862546       -8.13668184962086       22.45832660691285
H            9.85218317520465       -8.20890362440600       21.78300807968745
H            8.45697807925023       -8.52473034559923       20.74650780758284
H            9.17051905798911      -12.46908209970330       23.59092699927059
H           10.28501504784961      -12.29735405020549       22.22047600956331
H           10.87969976980425      -12.15102441672312       23.87774058759332
H            8.24585245930863      -10.43523129329693       24.69850858106074
H            9.88300719416603      -10.24181580845208       25.33090745094821
H            9.08117813770646       -8.87994499591576       24.54347211226776
H           12.89834016265199       -8.70433452086212       25.05292862907610
H           14.46200116152903       -9.44523821332966       25.48109163774111
H           14.19123917724000       -7.34957028307801       26.72266730186630
H           13.91387601834269       -6.44098145861752       25.22690256242723
H           17.84336267427546       -7.36745645972814       27.99936883664585
H           17.02306545216980       -6.45382683536663       29.25712865182361
H           16.07782727095274       -7.47900277487809       28.17076008740666
H           20.56621292106125       -2.43698275553183       24.99463638411744
H           22.25636591968339       -2.78898984820599       25.39971043398576
H           20.10702546155002       -4.84735207521960       24.71413343833146
H           21.10334376574406       -3.49189151266152       22.78437860402011
H           21.44141800745144       -5.24375353258186       22.70949415065152
H           23.65902107528386       -6.02326721442208       23.29219238164799
H           24.84627727564918       -4.84762190937616       23.92796602088925
H           23.56177823569642       -4.49283803752466       25.94294009822188
H           23.69510575305071       -6.26004806122347       25.72829797572842
H           21.95098195309041       -0.65423576473339       29.66907457156002
H           23.60664607123059       -1.31355801733275       29.69992297723550
H           23.69654323713919        1.11696466004050       29.17822551007087
H           22.58508575698727        0.87395661751614       27.82177387479967
H           25.37054110658833       -0.35833384940078       28.11400894690209
H           24.90957143669991        0.90254624852907       26.95849663247524
H           24.19562227592606       -3.93952213944605       18.85311852745876
H           23.14171487975405       -5.00341830882387       20.80057930096824
H           24.17651753433956       -1.71655886317725       23.30098367031714
