151
 energy: -221.324411376609 gnorm: 0.005043105753 xtb: 6.7.1 (edcfbbe)
C           29.53721515330123       -1.01032829278721       18.80921972227284
N           27.70906583556440        0.58621330775305       17.42034348672102
O           28.06293866020231       -2.36686890633519       17.37577119127107
C           28.12378143777720       -1.51260789761716       18.51773053901201
N           24.87252694654156       -2.52204174680740       19.17309450932001
O           24.68221760713742       -0.38179992391943       24.49847132151647
C           28.79869290160261       -3.56565684489733       17.48794661546313
N           22.46504886732554       -1.36956023489179       27.11945250972941
O           16.09108084188052       -6.70579079861731       21.59560688984010
C           27.19771345543212       -0.35395293197530       18.20235389610418
N           21.28340916033950       -0.90296057535923       27.70000966265123
O           16.20242126635927       -5.34432952156065       27.49609421182152
C           26.96808622468366        1.62348492832372       17.07665632085981
N           19.30541907504712       -3.94981669492345       27.86221576996159
O           20.55957601872667       -5.01002924140840       29.41157060200768
C           25.66034578466759        1.79318562935310       17.50319373248728
N           17.94766870888308       -6.54594776447061       28.25826675744479
O           21.40324812075384       -5.50254122787332       26.09766587472201
C           25.12042827039415        0.82111093881134       18.32297074486836
N           15.73865213945522       -7.74135923713454       23.57940318593859
O           19.16783687010004       -1.32614217725583       28.33949523870845
C           25.88575429226356       -0.28786193801452       18.68812256612483
N           11.33930362011118       -8.83314363609727       20.55350690158444
O           24.99157726291770       -1.77758355955741       26.22412330250013
C           25.26080017856376       -1.26778997288672       19.58710913605465
N           22.37575553421131       -4.19037482031155       23.81626393990260
C           24.98771074334288       -3.04860964036086       17.83619795398537
C           23.73247350281688       -2.76926312593923       17.01222324539039
C           24.85484799948238       -1.04545622746398       20.88441074607375
C           25.07800974741223        0.18932452677100       21.69669212671375
C           26.24642713046347        0.12281420855923       22.70907387564339
C           26.50721313776115        1.53265697186075       23.24504174334635
C           27.50811763605233       -0.41266462870944       22.03397658658567
C           25.90916652903373       -0.80302309348117       23.88350395410194
C           24.32192824172965       -0.96679666876647       25.62362874947575
C           22.95946823861771       -0.47276801350013       26.08456134547177
C           20.21783055163048       -1.70712211140247       27.83137925529461
C           20.39212518596554       -3.14803994869107       27.34684361649721
C           19.47501212203308       -4.79235930054905       28.88874952813472
C           18.19323117081347       -5.53744667845599       29.28914803519774
C           18.28589205238831       -6.11803897417935       30.70829139028168
C           17.08783414603486       -7.01197528504629       31.01482894667094
C           18.35295484437946       -4.96201722048939       31.70590605046941
C           16.91790167661237       -6.34683925132674       27.42829539239275
C           16.63666244458910       -7.34522921578706       26.29098702776979
C           17.48845964569788       -6.94698943338355       25.08098927322615
C           17.14908865440145       -7.81906399623771       23.87553047568360
C           15.32034221053327       -7.19138120100967       22.42865687553175
C           13.91189279827452       -7.26337388509228       22.14096406637948
C           12.82616971379509       -7.34242757940949       21.62469306759006
C           11.52175870831844       -7.43502693471551       20.97421060759595
C           10.06509959012318       -9.12418629972370       19.92844940031774
C           12.42101151051419       -9.35894243839513       19.74481176816611
C           10.44480838253883       -7.05205639206973       22.00279233081795
C           11.52639439443404       -6.41293631240421       19.81654041850895
C           14.88710262346657       -8.17284193929226       24.66118699664853
C           15.15075921826621       -7.33225838437700       25.91584720251407
C           18.92582777161871       -7.61235331081322       28.16207944302888
C           20.47341123207575       -3.22641451632548       25.81927873628288
C           20.55715330183314       -4.67683639445342       25.31359800953232
C           21.02041275694607       -4.69996932596836       23.84753071652885
C           23.25665438891983       -5.07058495070433       24.56646360230705
C           22.77106449660252       -5.13832541627047       26.01273583691474
C           21.27597924818564        0.46284395369682       28.20381441794767
C           21.69895658164691        1.42174662342922       27.09478304305592
C           23.06003741204644        0.99053456380989       26.55307779244036
C           24.16137067234576       -2.22159841472419       21.29103009810104
C           24.18222482803519       -3.11601938352889       20.19131116332974
C           23.55656946637862       -4.35692403253979       20.26211310289883
C           22.93812563619897       -4.71100827912973       21.44195049975730
C           22.91983909508424       -3.84064660268950       22.54164983966631
C           23.50397408653421       -2.59494492777407       22.46021352872958
F           16.96155195660491       -8.64937016155721       26.67377208132884
H           29.94097666650678       -0.54805365002304       17.91360072577385
H           29.50193271662602       -0.27067308514835       19.60259168210804
H           30.17918968049339       -1.82785521981809       19.12379131728758
H           27.73584328983576       -2.06564187394239       19.38985346537603
H           28.58771743593644       -4.06559810796387       18.43663558131080
H           28.47103597535186       -4.19230226394513       16.66507907164313
H           29.87215683258436       -3.39093205226021       17.40088026746138
H           27.45334370690830        2.34706705016260       16.43633663086472
H           25.08553258217857        2.65406862467257       17.20307043646408
H           24.10473722698770        0.90116997289428       18.68210471854733
H           25.85731113618261       -2.59793361169797       17.35396240507541
H           25.15437386837170       -4.12623892314010       17.90912106392273
H           22.85799330889497       -3.20413076088749       17.49050231837845
H           23.57760066277158       -1.69756035703469       16.91342358458731
H           23.84194557967987       -3.19784116480781       16.02058845440025
H           25.28350937624376        1.01799225086696       21.01681387580478
H           24.16554610283398        0.41690543101973       22.25002877803956
H           26.82357914192191        2.18865843853089       22.43885359654853
H           25.60567459620445        1.94029385940007       23.69341380445072
H           27.29052179565768        1.51332587538059       23.99885001403559
H           28.35617701272939       -0.36475881434040       22.71238157913299
H           27.36858928164291       -1.44670944630738       21.73016378754608
H           27.73088775795618        0.17902276398806       21.15031580796693
H           26.70322922552377       -0.78565727790744       24.63657311981822
H           25.78303034144182       -1.83538742826694       23.54364884600719
H           22.26831514021319       -0.52415844728006       25.23458892607102
H           23.18851380095654       -1.51704341992941       27.82106357798864
H           21.30197408287917       -3.55681411375876       27.79639341098597
H           18.37179522005967       -3.71373121863394       27.55937833552730
H           17.34909015240515       -4.84111243276391       29.24568476497748
H           19.21061922385345       -6.69529576391703       30.79532276229262
H           16.16125566533212       -6.46813477726043       30.84654744744267
H           17.08320892126783       -7.89961602812911       30.38932951640360
H           17.12117302504575       -7.32565301115859       32.05417084853823
H           17.43745981004081       -4.37543583642399       31.67276959346202
H           18.48450623983500       -5.34660058647947       32.71359762244172
H           19.19185303402072       -4.30943799457803       31.47629345122364
H           17.27300276309295       -5.90114459501742       24.85601981063950
H           18.54845898775695       -7.05074001065794       25.30955174365786
H           17.40549730504116       -8.86102055506244       24.09172585754301
H           17.69895174249424       -7.48030443305997       22.99559957311766
H            9.97753091892876      -10.20677268542661       19.84406838075087
H            9.24877364428282       -8.76423678176250       20.54581205445906
H            9.96984698822721       -8.69899987144202       18.91806336815508
H           13.37654278264996       -9.13343179303124       20.21054365865940
H           12.30956460499670      -10.44026095967567       19.68824922447821
H           12.42794441729041       -8.96128467563540       18.71952097491248
H            9.51628698453593       -6.78558277916415       21.50510112612988
H           10.26978367324666       -7.88453174399362       22.67890256663622
H           10.78171473518316       -6.19453051170520       22.57957832297786
H           11.54018556149284       -5.40427735531210       20.22148970852027
H           12.40696413045162       -6.54377912273071       19.19111916155175
H           10.63375594776291       -6.53240534846262       19.20776500267032
H           13.84408598831985       -8.07864217766829       24.35826102037032
H           15.10584256445364       -9.22327332195127       24.87983071077932
H           14.57054134447994       -7.72915102035767       26.74920793476089
H           14.85773984213789       -6.29463164272787       25.75735290599377
H           19.79855699518328       -7.32572086472274       28.74216087091532
H           18.52885252577498       -8.55133696563251       28.54681381749745
H           19.24956278129247       -7.76050418481200       27.13498029025507
H           19.59122401809556       -2.76159297272385       25.38007543384101
H           21.36224740307594       -2.69592794030729       25.48826574409293
H           19.57462759398987       -5.14665661205468       25.40231029039610
H           20.38106918288895       -4.06037801434157       23.23786046082620
H           20.94610584266751       -5.73799584469173       23.47481939081349
H           23.27981237819932       -6.08624287753127       24.13110986177236
H           24.26648274758766       -4.65639750348853       24.54920779405813
H           22.94530791353942       -4.16713873845945       26.49011075472721
H           23.30713774574804       -5.91098534063170       26.56552045982296
H           20.26522584863334        0.66759411963181       28.55587774075334
H           21.97125929995487        0.52839432523073       29.04762015342913
H           21.74820966186266        2.43473886463519       27.49058859655350
H           20.95841629992860        1.39664927499015       26.29439618908418
H           23.81506019124202        1.06967072248729       27.33755045979850
H           23.36118578465570        1.61666422470241       25.71518032813607
H           23.55349717114276       -5.03420658132685       19.42161295267663
H           22.45690261816986       -5.67491356905003       21.52199367621920
H           23.43276873527699       -1.93422254713801       23.30616184444030
