151
 energy: -221.315933504209 gnorm: 0.004701187576 xtb: 6.7.1 (edcfbbe)
C           30.98165495736369        0.70783745642440       20.22953260772436
N           29.45516041884711        1.22069342104787       17.91788760541490
O           30.59370583015241       -1.35405774273595       18.95320779736038
C           29.97268605543387       -0.31423521022127       19.70860621891132
N           27.30061281097047       -2.29638531948395       19.67081869549919
O           24.47580510720160        0.49287402973729       23.90685286405410
C           31.27991818911980       -2.31205137395630       19.72705799208266
N           21.96452066632698       -1.10131748570080       25.89846028747393
O           11.62820540345670       -6.68085638053755       22.42829230278554
C           28.96780122348447        0.34245471052815       18.78110666803723
N           20.56504927654307       -1.11672175224306       25.91963621170272
O           15.71707993135064       -6.13356145718843       27.35061989762439
C           28.63445005071073        1.83000669954359       17.08040883137933
N           19.66397648677638       -4.65063793099053       26.07169153863272
O           19.89493622764942       -4.61577609309463       28.31336507070450
C           27.26592951071807        1.61222162915327       17.06670282517419
N           17.63896126631823       -6.68030577109389       26.29923206982370
O           23.06952509756914       -4.98286925977514       26.29507113844166
C           26.74780288111238        0.69446170167485       17.96251568588811
N           12.99490863852060       -7.76664207023550       23.87205944520900
O           18.63501587658499       -2.24430319824369       25.70004436896028
C           27.60277398554285        0.02530418961924       18.83655812289300
N            7.77596487884810       -8.66563509978128       25.78636916858560
O           24.63268531227479       -0.40782967024206       25.95394172930477
C           27.04488007884145       -0.94734627115081       19.78278955935772
N           24.31543958396701       -4.05162119817854       23.96864453308899
C           27.93213116411938       -2.94283774950905       18.54766226122548
C           26.91315680176369       -3.31776959588173       17.47303044933694
C           26.21679579497998       -0.70047193199171       20.85456753967428
C           25.65395718317358        0.62402676506571       21.26357551406164
C           26.29123567708900        1.30278700658607       22.49875158858658
C           25.79059099620507        2.74837167541249       22.56656639161942
C           27.81517112229948        1.29039625395416       22.38480680401418
C           25.90682138249093        0.58339949025231       23.79752671807757
C           23.97460923062627       -0.04977182165975       25.00242281113291
C           22.45718377788278       -0.12254760478777       24.92986184905902
C           19.86032002736953       -2.25282529688298       25.79143947440262
C           20.62130087750351       -3.57732617058991       25.87746152092725
C           19.35842203196036       -5.07353735840279       27.31019286987561
C           18.38681355717669       -6.24074437097939       27.46860778879324
C           19.13212976293268       -7.39074016292225       28.20636896494943
C           20.44413157904732       -7.82816284365881       27.55434564313195
C           18.20247444938972       -8.58171402179747       28.42003090508922
C           16.29934444912316       -6.69935364431581       26.42447909513946
C           15.42740478421823       -7.42914894648503       25.38403473283729
C           15.08153712168192       -6.51988880105322       24.20154149885923
C           14.19187331813634       -7.28272400850851       23.22105306077975
C           11.78641502154665       -7.45183953588283       23.37968539368128
C           10.63942630130614       -8.09126231393008       23.97386726161085
C            9.54766213055270       -8.54258614278527       24.21248264774344
C            8.25041134893613       -9.16037175796403       24.48717829565866
C            6.59295056973602       -9.32257402178483       26.30339918613669
C            7.61914715156170       -7.22511481322751       25.83285938860871
C            7.32731741549701       -8.81690042725039       23.29704682476074
C            8.47391075938840      -10.68014682950335       24.53840730058878
C           13.23096697669336       -8.61730263950050       25.01444992606991
C           14.12679741165100       -7.91299720921113       26.03845661038178
C           18.36836857050494       -7.26237072534645       25.18530309797935
C           21.52722611992575       -3.90761001460945       24.69112575649449
C           22.44580741859816       -5.10090089049651       25.02427283478290
C           23.52548256697900       -5.26172621539012       23.94334930410281
C           25.01309525878520       -3.93118432671522       25.23698810372010
C           23.98616203868681       -3.90207266871416       26.36816380923259
C           19.90294797901336        0.15703792868607       26.17312867419594
C           20.35378016355470        1.19866374381035       25.15503723528097
C           21.87832603629158        1.28548729065251       25.16894545486824
C           25.93911088353554       -1.97123111127315       21.43875366430118
C           26.62079908954389       -2.94407606089316       20.66402925469742
C           26.52316094213930       -4.29893452016832       20.96058856394009
C           25.76738506969032       -4.67987877321918       22.04911525084896
C           25.09497196904745       -3.72914955230449       22.83024220333666
C           25.16015763716933       -2.38713247111709       22.51230096260826
F           16.08945049194654       -8.56502163800425       24.90860722537184
H           31.53504624243277        1.11830179329190       19.39090549508865
H           30.45686822993251        1.51011128584572       20.73849484287858
H           31.67026619410723        0.24231685140018       20.92892080685821
H           29.43322078938568       -0.77113842242071       20.55386834287688
H           30.61897142024847       -2.74400403559472       20.48728896278886
H           31.59452735956700       -3.08587991200737       19.03077325590198
H           32.15990931775791       -1.88684762358076       20.21580741401189
H           29.10292099083536        2.52658009072328       16.39896597967079
H           26.62924509441174        2.14013466603708       16.37544821355172
H           25.68939143798973        0.47999453049436       17.98636987972644
H           28.68477370443589       -2.27097510565903       18.13097417071461
H           28.43863098159732       -3.84026877282387       18.91123389806178
H           26.15086579961718       -3.97458537424790       17.88519815967346
H           26.42959163883302       -2.42491283777373       17.08382906804608
H           27.41342659162865       -3.82723067116957       16.65508959778261
H           25.76633933594263        1.31240073796682       20.42381675983891
H           24.58785686838004        0.50138847716357       21.46403348737725
H           24.70550728866687        2.76986129398752       22.62162855949187
H           26.19269747435250        3.24900050033854       23.44406592956998
H           26.10584939308492        3.29849044171775       21.68421842936328
H           28.26672996329946        1.81673227458353       23.21975300495368
H           28.18792797198214        0.27113363895074       22.37669670191082
H           28.11638937298576        1.77524385276489       21.46128125938156
H           26.29117760588283        1.12226854623939       24.66969047047326
H           26.31803342785573       -0.43033249278311       23.81684607161493
H           22.16888604881486       -0.46498946591815       23.93029350769193
H           22.33855607899221       -0.87475501103025       26.82219959874486
H           21.22359209369472       -3.54267903515100       26.79287477981884
H           18.99397454504954       -4.78080944609475       25.32764490257084
H           17.62376614237690       -5.87304383072737       28.16807363101211
H           19.38424545563437       -6.96124106766404       29.18168475022187
H           20.27840312333759       -8.40161704080429       26.64878506890913
H           21.07193577518844       -6.96735396212307       27.33261545937050
H           20.98710608267782       -8.46056210831686       28.25283145309084
H           18.66997830535887       -9.29670555076398       29.09094627921593
H           17.26108786088781       -8.25827143695702       28.85988440354528
H           17.98786369551669       -9.08595624470964       27.48105196386375
H           14.56088537007997       -5.64644621226586       24.59404463403164
H           15.97891512623242       -6.18540399223601       23.68422426694163
H           14.74556946647475       -8.14226092004516       22.82714452782837
H           13.88551033494329       -6.63908327844749       22.39521455948060
H            5.69940777889984       -9.17174074244653       25.67924638608132
H            6.77321646568457      -10.38731754675150       26.41826789903384
H            6.38696212025185       -8.90587744259048       27.28823738728108
H            8.48102520252748       -6.74712157858739       25.37065628018286
H            6.70624918368999       -6.87346948801700       25.32876910266820
H            7.57049880999909       -6.91790262465803       26.87762534041814
H            7.28632700381171       -7.74194695313503       23.13667670617451
H            7.71022537431752       -9.28147392718769       22.39266632762892
H            6.32262490904650       -9.18897925643908       23.48270316157077
H            7.52701130301345      -11.20780378842392       24.46873853392615
H            9.09618786005330      -10.98032836656166       23.69930014939510
H            8.97578216077382      -10.95006368720886       25.46281162036850
H           12.27489366064321       -8.87672583158288       25.47082426149181
H           13.72833946727149       -9.53448311466302       24.67788662128996
H           14.36620612051198       -8.60523943830779       26.84610510781059
H           13.62538103977343       -7.04780169948645       26.46983391411649
H           17.91546087955070       -6.96882245646367       24.24091403869618
H           19.38984132377181       -6.90158886496666       25.21709778939081
H           18.37564611520742       -8.35119212330792       25.23584152417509
H           20.92604991883677       -4.16092243214092       23.81923296557160
H           22.14966202099584       -3.04755316218656       24.45563177890978
H           21.85720246914346       -6.01945493772007       25.10825621858898
H           23.07048325793571       -5.37636554807631       22.95943414750705
H           24.12020759045126       -6.16328920151047       24.17841597547683
H           25.71189394185997       -4.77402834600199       25.38662950330716
H           25.57848106988281       -2.99816643385431       25.25363150580530
H           23.45313596743455       -2.94581226446900       26.33793762277603
H           24.47999192947588       -4.00590708350621       27.33564236245558
H           18.82994620090932       -0.02255429132165       26.12713599297837
H           20.16981179537061        0.48102767600491       27.18621165165512
H           19.91538296587683        2.16298936346654       25.40885961500512
H           20.00776428904150        0.91020610095280       24.16200661480176
H           22.22268367678599        1.65268636836069       26.13903670012815
H           22.23544588744554        1.96265665995020       24.39466332486432
H           27.03057551662973       -5.04213782770324       20.36429164690095
H           25.69150027576017       -5.72597207519538       22.30479455269885
H           24.58410228981811       -1.69606648301323       23.10187217222910
