151
 energy: -221.322576029151 gnorm: 0.004074032224 xtb: 6.7.1 (edcfbbe)
C           30.19437907582928       -1.93607657648867       19.49331195006607
N           29.65757974554669        0.55295120399829       18.31548595131530
O           28.55722991926730       -2.19290267410167       17.67531624647968
C           28.80131544455331       -1.61332810138388       18.95528418190863
N           25.60865614486903       -1.18813149263566       18.87264745880344
O           25.27473671881251       -0.40797192119989       24.57663590266976
C           28.37685274458399       -3.59097282061922       17.68510002194368
N           22.66978203928486       -1.58749285802975       26.71082799263589
O           14.11305243144623       -9.82610490734366       21.91020852482303
C           28.61635751073155       -0.11692238602073       18.78285558215865
N           21.52447775969822       -1.07239821319749       27.32891264862706
O           16.59615823863319       -6.15597300410303       24.99125908075228
C           29.56095115456990        1.86005076565519       18.14195686300840
N           18.99023371793433       -3.57826322324405       26.50950964858682
O           19.57147045899353       -4.98940082665522       28.16701771262717
C           28.41642684414603        2.58243578774681       18.43856285900262
N           17.27105185052224       -6.51753815942162       27.10837619457230
O           21.36558792546024       -5.06914275518657       24.79645292031742
C           27.32037486902016        1.89144736723711       18.92482231064785
N           14.63422070860743      -10.00272437755913       24.11447062840127
O           19.33936961446844       -1.27943766968631       27.80526450594443
C           27.40031370687608        0.51218441304432       19.09725470342398
N            9.24488159119072       -9.24200897301166       24.49785251884521
O           25.21954756647330       -2.17305893323071       25.95634179724401
C           26.26558716911377       -0.24608706032457       19.63345174329902
N           22.50418241457202       -3.40694156557147       22.84547923807435
C           25.65468504728883       -1.28587207259510       17.43558359296159
C           24.51123599210537       -0.50200785607363       16.79293792941894
C           25.77692245849550       -0.23716586931870       20.92126140939418
C           26.13572063426935        0.71935734871790       22.01560600425240
C           27.11216781115060        0.22949779911791       23.10908949438157
C           27.45838863326921        1.41930661083151       24.00891293264080
C           28.38636778667706       -0.33090376269485       22.47930569136252
C           26.48811103902658       -0.87727110612994       23.96716732657613
C           24.73183087207411       -1.15371062398274       25.51966765610690
C           23.42830000339751       -0.55071414457847       26.01971586873257
C           20.33651543197499       -1.68830234878725       27.21990697448483
C           20.28875125008165       -2.96147270184351       26.36911006187616
C           18.73394215278268       -4.55184958555295       27.38705030249510
C           17.29467928786428       -5.07357376595528       27.33051376664861
C           16.52363192922747       -4.65398667337155       28.59704625821476
C           15.11935653184159       -5.25239773480697       28.59540170069467
C           16.44348592815147       -3.12858749646547       28.64690308184944
C           16.83832054193976       -6.93835603955325       25.91604104945623
C           16.42711652689881       -8.40344562338752       25.68079652323837
C           16.76184790552148       -8.83432456627424       24.24963551107561
C           16.05322310265771      -10.14056366117891       23.87774004136323
C           13.80043805455166       -9.70373575801772       23.09649037777906
C           12.50060448018248       -9.22964585882082       23.49196128621464
C           11.45537807177060       -8.67090392281328       23.71218408600546
C           10.15939596875564       -8.14409060060658       24.13932281774280
C            8.75738749315601       -9.99577219406062       23.35587227192544
C            9.77627564174591      -10.14245505119949       25.50577797259627
C           10.38119238042018       -7.23106035977994       25.35793431471199
C            9.57526155151669       -7.28846858243410       23.00652164602741
C           14.31678519719353       -9.77550160646005       25.50417207699160
C           14.91578078397605       -8.44584966958364       25.96131540110693
C           17.78178256822469       -7.36747082346321       28.16680406162101
C           20.57326350541334       -2.73825021880097       24.88535854746204
C           20.59616641224405       -4.07946854641150       24.12816755573252
C           21.13969069241004       -3.86599339820650       22.70726129592407
C           23.31718121186119       -4.43511012331035       23.47586048933167
C           22.74616313847272       -4.75044796156407       24.85592648386087
C           21.71519720351907        0.05277479349401       28.23390660280673
C           22.43097897557251        1.18497391437812       27.50322659303243
C           23.74068688162857        0.66001582693807       26.91941527845320
C           24.77425682091060       -1.25056988927739       20.96471147026533
C           24.68783320413250       -1.81151011978580       19.66561729421700
C           23.79759373088388       -2.84090984207519       19.37989330908246
C           23.04237645899812       -3.35699632370835       20.41148539600642
C           23.14731570090161       -2.83970079837284       21.71017103478326
C           23.97076833802772       -1.76501055185910       21.97622105312825
F           17.04122208173209       -9.31849319714501       26.53831365836411
H           30.29546681355022       -3.00325633413700       19.66980757894949
H           30.93888679394933       -1.61235058185566       18.77376059192650
H           30.34997886622928       -1.40933870051400       20.42963405551537
H           28.03873315790883       -1.99180057790980       19.65647708466553
H           28.01090161167087       -3.85070273303159       16.69314156345056
H           29.31432418407909       -4.12272861157888       17.87288878065192
H           27.63799289509641       -3.88477166422362       18.44067109910689
H           30.44848841382522        2.33959507862811       17.75259337889397
H           28.38481358028571        3.64934805135217       18.28967489114935
H           26.40070267706518        2.40660568636381       19.16063006869085
H           26.61766929969822       -0.90445464549130       17.09164829592133
H           25.58870664549290       -2.34045179040172       17.15581929199627
H           24.57518138204738       -0.57763191054306       15.71191551148140
H           23.55231912292533       -0.89722962888694       17.11816617012466
H           24.56725300345603        0.54611587613805       17.07549685865059
H           26.58800564121807        1.60076340329713       21.55806819580127
H           25.21259604592938        1.02653449984064       22.51088269932502
H           27.93444962029928        2.20486485220835       23.42876560498001
H           26.55779979768552        1.82157450260397       24.46544311446680
H           28.14063496603513        1.11341127958666       24.79822560248215
H           29.08907619851852       -0.64022117714693       23.24862700060208
H           28.15477575482344       -1.19126814558861       21.85757513071815
H           28.86032039250264        0.42476163869240       21.85864460992594
H           27.17600536582631       -1.19177071221100       24.75824348483654
H           26.24775243151525       -1.75220223291796       23.35518074422663
H           22.84095473828818       -0.21424438191835       25.15856742515457
H           23.27642512660011       -2.04580533136063       27.39419847364547
H           21.01164508016609       -3.66776109410029       26.79434256319695
H           18.24330498320095       -3.21010563602548       25.94072666762823
H           16.79359078999974       -4.63987618509952       26.45969446014241
H           17.07175578473631       -5.00280431624972       29.47668142618402
H           14.54916578134042       -4.85210802570370       29.42844191766991
H           14.60465410882022       -5.00108489471173       27.67000551177081
H           15.14945759277382       -6.33374759736474       28.68938816627528
H           15.85840412895073       -2.75315733343672       27.81058808070242
H           15.96331235789762       -2.81495490446280       29.56922834081884
H           17.43077576716727       -2.67353013690181       28.60697828093886
H           16.45299098681520       -8.03326739080442       23.57700884848638
H           17.84178325800355       -8.96209537169977       24.16644702648534
H           16.43458772686779      -10.96406616694227       24.48701022863884
H           16.20645692506553      -10.36438606350433       22.82095792620751
H            8.21558272803994      -10.86606895756954       23.72315624304423
H            8.06235879650772       -9.38921084328388       22.77816548128388
H            9.56564012356655      -10.34885604151348       22.69663215435603
H           10.09161301740672       -9.58371093404433       26.38155578242027
H            8.97869679533853      -10.81912469837793       25.80817717854716
H           10.62349177791118      -10.74286101675678       25.14040576970948
H           10.97916071825798       -7.71481468186502       26.12429833618971
H           10.90414063206140       -6.33087995292834       25.04642060251507
H            9.41616017953133       -6.95865285349249       25.77416255968630
H            8.58924934198843       -6.93419810136097       23.29125870912904
H           10.22451615166664       -6.43318927810572       22.83453391453367
H            9.50817272578969       -7.84557082596757       22.07705393446243
H           13.23551327855301       -9.76822233390160       25.63905883255691
H           14.75037109701979      -10.59337815155376       26.08651751911747
H           14.75016108913057       -8.30952152545457       27.03021597418250
H           14.44760040105889       -7.62305346543433       25.41947685854814
H           18.48799049824569       -8.09290903523292       27.77010512173904
H           18.31917623186682       -6.73999260240861       28.87088205000074
H           16.97737695788317       -7.89475743248607       28.67996364033943
H           19.80021842499708       -2.10397560117994       24.45187115136473
H           21.53936339740533       -2.25695892407025       24.76051509452717
H           19.59223008539565       -4.51546297152139       24.08650940660723
H           20.55536691578909       -3.10369333956118       22.19156800956410
H           21.05944185326381       -4.81879640168847       22.15567390564884
H           23.33805951297309       -5.35512982015901       22.86335736499134
H           24.33759420781604       -4.06572378373611       23.58935674799750
H           22.91926696973894       -3.89542749914562       25.51996864385785
H           23.22873287728437       -5.63330961402514       25.27711282878289
H           20.72851551828511        0.35562616222393       28.58413982320634
H           22.31120502501554       -0.28243274923273       29.09088390218160
H           22.62502813518835        1.99898436234658       28.19993203723223
H           21.79336185133924        1.55791792102027       26.70108886251674
H           24.40988812168511        0.34774024843717       27.72478287934928
H           24.23977801925903        1.42874114770470       26.33132802287898
H           23.71747942542773       -3.25560350756947       18.38628181499757
H           22.37065212543802       -4.18070094223871       20.22047060497462
H           23.98452641343564       -1.36343884970939       22.97311674587046
