151
 energy: -221.324074630076 gnorm: 0.005077964156 xtb: 6.7.1 (edcfbbe)
C           28.45161250265221       -1.59681396514920       18.36808643805969
N           26.79025077633067        0.26956998653104       16.97571135497070
O           26.91026496450049       -2.61056018641267       16.73709569672204
C           27.00280032863209       -1.90931929863456       17.97583633857714
N           23.82415370739944       -2.54955317470454       18.81981555675188
O           24.26220032946410       -0.89321611926065       24.30250776440621
C           27.47797307945487       -3.90940450587616       16.70829233098952
N           22.25310438615437       -1.98471786514142       27.03223650382281
O           18.97780379077278       -7.95115766173607       23.08681459137321
C           26.22460213637346       -0.62369683344488       17.77530759736678
N           21.19234468500694       -1.47055476304462       27.78548306609061
O           16.24710841391073       -6.14712811962787       26.68223779809415
C           26.18368557344052        1.42159181051593       16.75878136509778
N           18.66939651858236       -4.09015074126001       27.62710615881594
O           19.46708011246265       -4.85611124081346       29.59291809577444
C           24.97611193502014        1.76562088870087       17.34761488451217
N           17.20802352553262       -6.69241087079603       28.64360081979325
O           20.94780362232405       -5.78032210105235       25.90270630666828
C           24.37869937153393        0.84000074735886       18.18259286545721
N           17.11266330596528       -8.49653946318429       24.25981491092546
O           19.05555729800513       -1.61765611969630       28.46119200924006
C           24.99359999150081       -0.39254406724944       18.40332558815988
N           14.83637631205861       -5.28801973189814       20.48674267636447
O           24.72348643551820       -2.40559750476839       25.89236094018631
C           24.33204546780909       -1.35678319660712       19.28889566606893
N           21.71739046430350       -4.44528023529510       23.56037074792573
C           23.74049541880754       -2.94039892281096       17.43448468923454
C           22.49986217338247       -2.35277060500781       16.76380880105339
C           24.06593611187598       -1.21695572225109       20.63237621550341
C           24.41771317001334       -0.06158336070171       21.51427925262428
C           25.65701772658680       -0.24873067904516       22.42103322307361
C           25.98160487790103        1.09311325715725       23.08318571454527
C           26.85152415023513       -0.71673859117411       21.59209087709206
C           25.39773372781538       -1.29042977946693       23.51610202628937
C           24.02538863404785       -1.52924475283525       25.43155306755473
C           22.78217392461399       -0.97988171625418       26.11304912800863
C           20.00546134051828       -2.09383053197307       27.84853301202140
C           19.91038232492557       -3.48309904716990       27.20461378125446
C           18.53866217455822       -4.69917129763999       28.80692189810066
C           17.14606335313186       -5.28859156585210       29.04655397876355
C           16.67724310220232       -5.06661344451492       30.48945756393351
C           15.34177133250826       -5.75809832903348       30.74580259055612
C           16.54412439318694       -3.55932948773679       30.71101979339930
C           16.68614872124630       -7.00477094015995       27.45024984079512
C           16.61101286664223       -8.48524463036292       27.04311727281462
C           17.95168464544106       -8.99736516730093       26.48033960454447
C           17.79597394820080       -9.49815886602256       25.04251910368847
C           17.79115004563121       -7.75332791774399       23.37213473837510
C           17.03207688723881       -6.72027002290605       22.71984250727178
C           16.47172441654328       -5.84991856357034       22.10586496806983
C           15.81969992958104       -4.73286192325671       21.42581765277692
C           15.40091138414004       -6.21455096940874       19.52546961315575
C           14.00194531496451       -4.30913232409490       19.82099826268481
C           15.10761517161788       -3.90933155489220       22.51173408840376
C           16.93022677559242       -3.88547142702554       20.76975770976195
C           15.74552945840376       -8.20941923626350       24.65121123267274
C           15.45617216208654       -8.72106769455538       26.06214268465147
C           17.96621333112459       -7.58426795765977       29.49602555961255
C           19.99518448747482       -3.51831232046851       25.68221711054848
C           20.03361656570532       -4.97370191849783       25.17469877145070
C           20.38921962357880       -5.00493501923579       23.68225678273417
C           22.67868885902871       -5.29923746776969       24.23870785168436
C           22.30127317896448       -5.39037095701351       25.71568362845469
C           21.45192835177880       -0.25028632518376       28.53671262827865
C           21.93164528144482        0.84566382744235       27.58966644731515
C           23.15027417424856        0.33880919454924       26.82191999060195
C           23.34378905913973       -2.38466472865480       21.01451286218210
C           23.19667843548268       -3.18555858584926       19.85434056007585
C           22.49976862549755       -4.38936113769411       19.89666719457017
C           21.99124966724678       -4.81167004449193       21.10720972246355
C           22.15050040053700       -4.03875895302637       22.26581562181531
C           22.79211971993900       -2.81907821111176       22.21488197663674
F           16.28911768253723       -9.23903019380072       28.18727724725627
H           28.92050284471748       -2.44738189770662       18.85690737332280
H           29.01222806728247       -1.33315044818640       17.47602472431327
H           28.47014639328419       -0.75545858209247       19.05280833256723
H           26.51995062854888       -2.50440319700924       18.76804835418848
H           28.10302920655565       -4.10353839751965       17.57773600071294
H           26.67759491555636       -4.65578876231643       16.67009417189539
H           28.08525769902833       -3.98692172655038       15.80590647849234
H           26.69482625893805        2.09702257978403       16.08626980745575
H           24.51837631109931        2.72235348243470       17.15385205701963
H           23.43095567333787        1.05076385885781       18.65652916587915
H           24.63850602200354       -2.60680547434090       16.90979738477160
H           23.70386911721672       -4.03170868939463       17.39577470179810
H           22.57239323618550       -1.26869296778876       16.71935829924950
H           22.41060756061337       -2.73748656378839       15.75211173078389
H           21.60673048101305       -2.62097377853610       17.32393338403272
H           24.60836635893888        0.80881521476990       20.88431398620386
H           23.56241251880092        0.15862314898475       22.15548087507527
H           25.13678678450003        1.43544284900265       23.67482425197227
H           26.84546319336292        0.99467753321772       23.73621431073214
H           26.20480977061226        1.84268965736725       22.32912104969796
H           27.03905309489391       -0.00877085942818       20.79090030647205
H           27.74270293204584       -0.79116970635919       22.20929138781343
H           26.65338191250238       -1.69043940495339       21.15196544213205
H           26.26354958770314       -1.38685647878063       24.17860532348998
H           25.18826396426097       -2.27144615934153       23.07997602420419
H           22.01835631132360       -0.77982561963096       25.35419640753216
H           23.00616579162737       -2.30922668816585       27.64202175823310
H           20.71748892049172       -4.08640182432996       27.63734623463441
H           17.85395999012042       -3.93700346964774       27.05304494936863
H           16.43024651674154       -4.81189794200385       28.36985771938127
H           17.43761865752625       -5.45286655794323       31.17319893291207
H           14.99570384033625       -5.52863647046624       31.74933033153150
H           14.59741617839856       -5.40792600713881       30.03412229564353
H           15.42481089824373       -6.83698518588208       30.64897998447935
H           16.30420667746667       -3.35163111699279       31.74954392920900
H           17.47183911188128       -3.04722865174806       30.46125317902665
H           15.75407813467381       -3.15316385639068       30.08348481262433
H           18.69410723237598       -8.19511724684706       26.49504624706248
H           18.30548794929037       -9.81538343705742       27.10843968665672
H           17.22655318503373      -10.42946018704304       25.00932940086201
H           18.77834495628258       -9.65998108524971       24.59520247683125
H           16.07495792263074       -6.90272361565971       20.03252772391478
H           14.58635266590823       -6.78799285703377       19.08370446828427
H           15.94974669053713       -5.71513718585818       18.71290162884080
H           13.47129083105733       -3.70788271086322       20.55311338336548
H           14.56158948151902       -3.64644715122120       19.14436548048786
H           13.26596954717188       -4.84981605632981       19.22787063850619
H           14.84726316311896       -2.92333830535102       22.13841715797376
H           14.20935553118551       -4.42685667687417       22.83580012849699
H           15.76712408093024       -3.79114385547128       23.36817144203126
H           17.50643755648056       -4.48392585279591       20.06815560418762
H           16.49716942549749       -3.03663046074906       20.24743383312362
H           17.60644933644913       -3.51675863019494       21.53674809815558
H           15.58756417074979       -7.12990109974125       24.61080530351278
H           15.05321136879822       -8.68885487234586       23.95049375405541
H           15.26248233833127       -9.79423574393429       26.05532990127529
H           14.56558127993042       -8.21848882949396       26.43998971927432
H           18.70911303991730       -6.99096203613197       30.02641939220173
H           17.32011980969827       -8.08776592616258       30.21538837122585
H           18.48901342385446       -8.33118781488042       28.90695695647696
H           19.12740345245114       -3.02159532431805       25.24925485892780
H           20.89896746319310       -3.01468458350200       25.34817180067628
H           19.06344967748438       -5.45806359719680       25.33569055004259
H           19.68520551644127       -4.39778527590744       23.11314609291237
H           20.32225976784361       -6.04762898043638       23.32937296612533
H           22.69674998273476       -6.31081634995013       23.79448873737230
H           23.67263302481786       -4.85585459369762       24.15364422878431
H           22.49019676253389       -4.42137203844940       26.19227440963730
H           22.89274825545041       -6.15888996389388       26.21579118264814
H           20.52548834768442        0.02097202172689       29.04278418300918
H           22.22258597747588       -0.46651853070274       29.28630708470266
H           22.18539997551935        1.73685693359266       28.16149288417156
H           21.13050357408365        1.09459123940081       26.89217138030546
H           23.97595574316652        0.15365775143864       27.51413197952838
H           23.47476818023923        1.07012821287284       26.08243176624293
H           22.36234547000313       -4.99239158673870       19.01179971664271
H           21.45964745206435       -5.75073795576782       21.16866577286348
H           22.84447868613085       -2.22772663643923       23.11158422922630
