151
 energy: -221.329932643902 gnorm: 0.007769930492 xtb: 6.7.1 (edcfbbe)
C           27.81566754416386       -1.59452870815020       17.59100262313511
N           25.94774322468725        0.39951394602478       16.91307942379961
O           25.81928989178639       -2.55561031733245       16.52295418874709
C           26.31252128630799       -1.86272472032801       17.66816091582552
N           23.30185532087641       -2.54530491228100       19.07423064212637
O           24.73207734976770       -1.21933646639040       24.49877303922306
C           26.19013308225281       -3.91431281402144       16.45074093129471
N           22.92773415479877       -2.12750328805122       27.43415210296740
O           19.13859270949570       -8.28531955641688       22.63840535273645
C           25.54044898104860       -0.55931845623176       17.73230134066275
N           22.05771773184581       -1.48498537810426       28.32118299445054
O           16.83241197165687       -5.17472497638513       26.45657440159440
C           25.32344317254223        1.56438377461510       16.91404812583320
N           18.98285292613902       -3.46703582693073       28.15077122888793
O           19.42393563905689       -4.97925499771933       29.76729678527051
C           24.26314409005998        1.85524183836993       17.75694139352362
N           17.03640864639074       -6.08464268395336       28.49948768045930
O           20.58319435105937       -5.62513220103338       26.29309668701840
C           23.82767024508088        0.85967123921808       18.61191987318727
N           17.38805774521276       -8.85447256257018       23.97662872605760
O           20.03014090652550       -1.32210126340880       29.26789648903906
C           24.45599670440486       -0.38629444999873       18.60218482437554
N           15.26682822653153       -5.19562696427756       20.53488507338891
O           25.10310321177446       -2.91117428916012       25.92597785495763
C           23.95044903972513       -1.41355074559460       19.51894110709857
N           21.63002586798942       -4.49394008270002       23.96376308657025
C           22.89984132857664       -2.80359529196230       17.71415250938695
C           21.49989583477553       -2.25582820067225       17.44080689644748
C           23.93620432948802       -1.36040277992832       20.89425130062302
C           24.55684875361281       -0.31095268178202       21.75885626251353
C           25.89156903226518       -0.71008037316254       22.43285650894197
C           26.52256146421652        0.54212152524911       23.04631324639494
C           26.84464058629267       -1.31543031689990       21.40331397258826
C           25.66609173550061       -1.74415375662133       23.54273542308628
C           24.52829774428946       -1.89093305546075       25.61519169706738
C           23.50358273876551       -1.18118703246450       26.48545399758120
C           20.79189070792699       -1.89763368295832       28.50161710880782
C           20.35025616220689       -3.17779559125011       27.78178335502535
C           18.62697775171393       -4.38818323160247       29.04775601401854
C           17.12828293741908       -4.72260064905156       29.03444225378206
C           16.45961181359464       -4.50885298961392       30.39419077977630
C           14.96547325072048       -4.81142416088038       30.31488411846619
C           16.68116952216605       -3.05122657049185       30.80094453046710
C           16.89894695372582       -6.17816982923855       27.17434108055570
C           16.82380608957023       -7.54202712221608       26.46919485537635
C           18.24412170842293       -7.96326511637608       26.06863077316860
C           18.23090142212704       -9.15763613468400       25.11100209120265
C           17.92538784712393       -8.32208704924379       22.86053796879533
C           16.97547239135669       -7.80523636305615       21.90928006565911
C           16.30899985948273       -7.24158707008415       21.07997603672485
C           15.38815125837163       -6.60745145666972       20.13958861082590
C           14.35783883251833       -4.40744168881313       19.72831241703068
C           16.53132842988082       -4.50198163992512       20.68008298177375
C           15.91523176797704       -6.83223318503194       18.70862686682424
C           14.03628375744327       -7.32038114193212       20.31432209047872
C           16.00711711521182       -8.65611229467387       24.35279866959550
C           15.90299355635145       -7.42299688313656       25.24876081735494
C           17.35181925975102       -7.17078337722871       29.40312575636083
C           20.43311540916352       -3.16024887268117       26.25463833166860
C           19.95719280120300       -4.50653813343790       25.67623643165222
C           20.19901584202914       -4.54703181280436       24.16492854956988
C           22.25086360120867       -5.68792120077886       24.50401733242768
C           21.97125331067982       -5.71656970790807       26.00726856949349
C           22.59861538454053       -0.35604580703455       29.06712753079463
C           23.16456305071939        0.68290948236728       28.10237820991144
C           24.18212266182242        0.01442632927379       27.18126879248819
C           23.20800994503551       -2.50618933552523       21.32615645602036
C           22.82749642996989       -3.22222893970067       20.16307896990225
C           22.08672173290325       -4.39751212057064       20.24862191559119
C           21.71084978223952       -4.84393022746554       21.49742176293928
C           22.04307113895140       -4.11884215766764       22.65050602626379
C           22.77841161758870       -2.95618064890923       22.57040343275799
F           16.27147062361901       -8.52306908617101       27.30247919467632
H           28.37089483176008       -2.52697317882755       17.56035051024467
H           28.02679520563013       -1.01377652447007       16.69923767428598
H           28.12790403681363       -1.03264848470003       18.46566540409203
H           26.08573129056995       -2.46166411397139       18.56557899824903
H           25.65741346629276       -4.32101727017456       15.59365768772504
H           27.26482256478306       -4.03442948276319       16.29739866138859
H           25.88941146063866       -4.44794147749766       17.36088326147060
H           25.70405899450463        2.29236757842958       16.21120292275073
H           23.79125558569492        2.82384650162504       17.74239752421846
H           22.99711032272753        1.02539654755850       19.28280753406980
H           23.62161402290085       -2.34070896139555       17.03714945598520
H           22.91940825441644       -3.88472666139613       17.54793155354438
H           20.77941374083891       -2.70024032359850       18.12501127358439
H           21.48508270416444       -1.17612589007641       17.57579081189891
H           21.20655973886950       -2.48478350493549       16.42082019845763
H           24.75296667220435        0.56968104862879       21.14437842121054
H           23.85073973783513       -0.03164191436068       22.54357606812681
H           25.84658341797708        0.98977683561242       23.76924747441379
H           27.45150836347329        0.28850480311319       23.55077168099634
H           26.74083299305464        1.27303442868606       22.27266601340006
H           26.44452353593858       -2.24857669109009       21.01463373855051
H           26.97540260052135       -0.62506690231079       20.57440257165628
H           27.81512824854099       -1.51525461762839       21.84899814181942
H           26.60266295199526       -1.97561404457517       24.05935511254098
H           25.26038585838819       -2.67474093742040       23.13776075246769
H           22.69480280737935       -0.81116732508910       25.84618838573415
H           23.67907799869303       -2.59889461081360       27.94063897721468
H           20.96098175932488       -3.99696541240931       28.18152404566729
H           18.26817514273506       -2.98669961535315       27.62404172666761
H           16.62784178895710       -4.08337885914117       28.30123564958796
H           16.93290587232195       -5.15362775896246       31.13873706723729
H           14.78104621242937       -5.84521674821827       30.04207937463953
H           14.50056403955407       -4.61824867068647       31.27658399767677
H           14.49484801807874       -4.17315754664432       29.56978059781155
H           16.23397690427167       -2.38108917955073       30.07051780473534
H           16.22736200947199       -2.85938269584677       31.76823504069574
H           17.74302085563815       -2.82117311473273       30.86432206928889
H           18.72100992254247       -7.11048252965008       25.58351320262502
H           18.83157557106244       -8.20285224452640       26.95475348698436
H           17.83154071263165      -10.04284460439476       25.61304020461178
H           19.24203379968834       -9.36309059772351       24.75267661410512
H           14.22771851860979       -3.44525314264666       20.22223773445222
H           14.73370419738120       -4.21971884255428       18.71221302167002
H           13.38730891805814       -4.88971643361350       19.66976720214511
H           16.99744672965960       -4.24327103029702       19.71727835407567
H           16.35145123142135       -3.57787410478729       21.22905391252818
H           17.22945242084389       -5.11013504480130       21.25247113353013
H           16.86242719055053       -6.31751982294865       18.56090118019392
H           16.07288761995722       -7.89437442180519       18.53963125180812
H           15.19059321769462       -6.46672601178091       17.98438407846042
H           14.17848704880100       -8.39286018841892       20.21737747289219
H           13.63253051578891       -7.10347928262681       21.29643321757457
H           13.32637119561094       -7.00289109177053       19.55792663642778
H           15.39635592847228       -8.52394512544363       23.46026902804293
H           15.67113653157900       -9.54335210599105       24.89644282049895
H           14.88024746990448       -7.28971913943325       25.59762438446065
H           16.20100474120638       -6.53402368313499       24.69469653427750
H           18.07391111803880       -6.80516959957355       30.13192835255979
H           16.45161580759621       -7.52200182022989       29.91086767860369
H           17.80640938600180       -8.00281755339058       28.87503351773535
H           19.79097467153069       -2.37350509695279       25.85947067066509
H           21.45626197545869       -2.98410476239079       25.93400704904242
H           18.89007987314026       -4.64415131464212       25.88045717381270
H           19.73359796432718       -3.68573561218842       23.68457094428778
H           19.74798161378994       -5.46854465726200       23.74899094858886
H           21.85951247525366       -6.60834026618472       24.03051721338243
H           23.32871734780925       -5.63363529838961       24.33882692922101
H           22.51548667184631       -4.89480434879108       26.48757803030954
H           22.29100667881236       -6.66435375154218       26.44360119616395
H           21.78656149076461        0.05135439573786       29.66888137396261
H           23.38823620319944       -0.72524554853598       29.73091478879191
H           23.63396704923206        1.48408515619275       28.67036444961067
H           22.35338188294253        1.10613035343883       27.50899838501157
H           25.03514463334422       -0.34489360465862       27.76234060448566
H           24.54387630252812        0.71461392026882       26.42952165684798
H           21.80228044658729       -4.94998511365619       19.36595118595168
H           21.13436673193163       -5.75444521971408       21.59370031262706
H           22.97286988936035       -2.40740074047250       23.47534742782699
