151
 energy: -221.319119168826 gnorm: 0.005790557216 xtb: 6.7.1 (edcfbbe)
C           -8.90900442315548       -3.71408894528154        4.65992514799536
N           -7.22472158734805       -5.43953576327877        6.11380620924787
O           -7.90989389718903       -5.46060192756453        3.24015348759059
C           -7.64609856939152       -4.30421377531283        4.03337588266406
N           -4.53816101228006       -4.21174174509094        2.68581883132739
O           -3.10728521477907        1.04115131229985        4.93315946152499
C           -8.66990755381437       -5.22653945947049        2.07486292161115
N           -0.43235618462994        3.14935972562398        3.78343149685308
O            4.52548670814266       -2.26987084295750       -6.59839119412900
C           -6.68249797414475       -4.76489604372318        5.11015465320481
N            0.96366208782725        3.12299161044033        3.88433073415967
O            4.22505149522669        1.22320085773750       -1.96997314087757
C           -6.45458317024228       -5.88195683953028        7.09065772412310
N            2.44404504145363        2.82634135475787        0.56714318286478
O            2.05536693850209        4.95709253406206       -0.06582564771851
C           -5.08522629064471       -5.66962253287255        7.13250792671019
N            3.28550950617649        3.23473376243285       -2.35232541374362
O           -0.61072212948843        2.28981752374702       -0.68943743931486
C           -4.50947792332438       -4.96968392239958        6.08846184591488
N            3.52233232584613       -0.25488551015839       -6.29949957900158
O            3.05724076707578        2.87501107228769        3.11868996170212
C           -5.30725157632639       -4.50596469848081        5.04200555424832
N            8.56725059379248        0.01200647987131       -9.00752136768460
O           -2.99484320931781        2.41639778280364        3.16885584522838
C           -4.66737340830821       -3.73493305901427        3.96986325134047
N           -1.77473382984031        0.04483131289952        0.50861552022161
C           -4.87226400987610       -5.54530587616331        2.24951836692365
C           -3.75193313813131       -6.53582702975207        2.56389066268583
C           -4.07121738873664       -2.49898346901083        4.08954082017558
C           -3.94796088259397       -1.69250726410644        5.34361325600508
C           -4.90721032990080       -0.48778053136485        5.49653250992728
C           -4.89450768495940       -0.04375989383861        6.96175486374797
C           -6.32482073000771       -0.88127266947835        5.08618767953027
C           -4.46743504601444        0.69457048469646        4.62382536175836
C           -2.48265084127439        1.87182649963456        4.12335013139840
C           -1.00897913579585        2.00238166890665        4.47581724349694
C            1.84342757727631        2.89319483239397        2.90684339214985
C            1.31934711051026        2.71778143817346        1.46824468377866
C            2.72109069580888        3.93274024749038       -0.12994677988513
C            3.88026715629264        3.74401409152583       -1.11265648744747
C            4.70635304897957        5.02355341073923       -1.31164209112279
C            5.84041981270859        4.78491512380412       -2.31145477206454
C            5.25951786167827        5.46218927451661        0.04377704701701
C            3.51538929196561        1.95232684054524       -2.66447097625967
C            2.98902579336781        1.38246310284748       -3.99666771712316
C            2.93771845320974       -0.14653437293272       -3.93158996892560
C            2.60269321758774       -0.74442659295847       -5.29914153092587
C            4.46342138754567       -1.05945313667244       -6.82392983075419
C            5.38460477067004       -0.42966365040989       -7.73556441286857
C            6.25944354429880       -0.06990320578536       -8.48125396086678
C            7.23479602029903        0.46923255603596       -9.42487200363452
C            9.66726529406066        0.52224856136631       -9.79971544144480
C            8.68314432822714       -1.42408917417787       -8.85430852875706
C            6.81144722349408        0.01255899294249      -10.83726994710699
C            7.14539863310509        2.00189703772462       -9.32705713305121
C            3.50590769382318        1.17954022504901       -6.44942224960469
C            3.91275880451889        1.84397174379242       -5.13138307076386
C            2.30399313661655        4.08205615860959       -3.00259225186855
C            0.64288285841832        1.36537803592977        1.23231699189065
C            0.17120753016060        1.20109865673571       -0.22655170815455
C           -0.62595460552959       -0.10479111221616       -0.35297078325834
C           -2.64764934488647        1.09283750455582        0.01212847702850
C           -1.87199008106226        2.40940803624831       -0.04918304119292
C            1.37778834787799        3.34341374388673        5.26254583806968
C            0.78765108373545        2.25740904687068        6.16136952213441
C           -0.72791316137729        2.19063236755850        5.96924609896784
C           -3.54051676841066       -2.19308258987703        2.80297943494255
C           -3.83388924943027       -3.29470663692083        1.95750156896929
C           -3.40589179015115       -3.32126176503068        0.63445051591505
C           -2.72112126670841       -2.22942103667171        0.14335741031703
C           -2.44462513895229       -1.12463621589129        0.95990315989965
C           -2.82563016445432       -1.11863555836125        2.28631423334216
F            1.68791437160657        1.82292281508648       -4.26345467296948
H           -9.55686314513035       -3.29068619875787        3.89794922938555
H           -9.43509455310006       -4.49564204473092        5.19890603308297
H           -8.63320394606725       -2.92790361903389        5.35558821782191
H           -7.15409602015546       -3.54625693726814        3.40080226153374
H           -8.21578504740822       -4.43862788842741        1.46378224508583
H           -8.66333305266768       -6.16587596128040        1.52663915109044
H           -9.70099874096258       -4.95402448573173        2.31094742376149
H           -6.96366029692937       -6.42501314363214        7.87405474876376
H           -4.49249421473515       -6.03960279649260        7.95293137682051
H           -3.44542673935025       -4.78360429941678        6.06394480288099
H           -5.79320640660058       -5.86177483966705        2.74416960610481
H           -5.05138994367406       -5.51268467878603        1.17308340329094
H           -3.60827220488402       -6.61313375855730        3.63904447769344
H           -4.01135126398609       -7.51676117929344        2.17737872319466
H           -2.81821373656572       -6.21260293207340        2.10909935393507
H           -4.13421297203816       -2.35847085935917        6.18764565131302
H           -2.92454762250730       -1.32072564364616        5.42471794598880
H           -5.54468048185345        0.81581888858518        7.10300325417589
H           -5.24461429949161       -0.84768054722079        7.60358104833256
H           -3.88749433698627        0.23132861864748        7.26263977715662
H           -7.01302898765803       -0.05453086448737        5.23973132225457
H           -6.35478846977951       -1.16712476079358        4.03798265928809
H           -6.65499422483750       -1.72755166553631        5.68290527837184
H           -5.09801523711800        1.56863780352390        4.81258951989252
H           -4.53599912857626        0.44876704634074        3.56040575694968
H           -0.54277902845872        1.05106545825221        4.15286159492589
H           -0.75576272166884        3.23113625515755        2.82597234346735
H            0.65254350478194        3.54977197917208        1.20978900539542
H            3.09147909111440        2.05233859089567        0.55648945744496
H            4.54554439797251        2.95517799762124       -0.74910170014659
H            4.04755411396685        5.81578087021524       -1.67504686783055
H            6.72974914472120        4.43416838673952       -1.79252612016983
H            5.56169882287488        4.03246732975234       -3.04447335808821
H            6.08917937475818        5.70223711245156       -2.83498096845547
H            5.86234823395378        4.67019150895819        0.48394947556282
H            5.87752215499732        6.34666943079340       -0.07627045206979
H            4.45016952350297        5.69597829450824        0.73186785545773
H            3.90610097458616       -0.50575649112056       -3.58345154590910
H            2.18123523068320       -0.44387767470454       -3.20362207686229
H            1.58567271469996       -0.46203328271224       -5.58809713102993
H            2.68407172691480       -1.83184782590432       -5.26541633249485
H            9.61757316949456        1.60460888213392       -9.86307008549665
H           10.59331951332167        0.25396350726491       -9.29195559879011
H            9.70310066810007        0.09965793179040      -10.81519553442538
H            8.75533465491772       -1.95869420760858       -9.81501344387924
H            9.58878287489271       -1.63587828158010       -8.28255612386748
H            7.82851459645317       -1.81131212769593       -8.30057635408524
H            5.80368465477488        0.36030774674876      -11.04688940375343
H            7.48699366203549        0.42742482626689      -11.58050435340341
H            6.82201993879566       -1.07246489034271      -10.90854270949565
H            6.10169826927250        2.30477984063209       -9.35235502207132
H            7.58811348685020        2.33513021320852       -8.39302377942542
H            7.65630793978252        2.47482458836233      -10.16014187850689
H            4.19110705651665        1.46891008952163       -7.24631164099370
H            2.48857879768444        1.48768572284279       -6.71175238820912
H            3.86897584174575        2.92605081380666       -5.23945256736101
H            4.93140335910365        1.55704615603101       -4.86832442405612
H            2.49315329318144        4.15808983497385       -4.07020635901462
H            1.29447689792062        3.69991263700335       -2.84125839284878
H            2.35615574447022        5.07125119822762       -2.56025072297585
H            1.35373397831891        0.56693627574860        1.44950856043894
H           -0.22576467516191        1.23733802349759        1.87573109688052
H            1.03454077257523        1.19068655601447       -0.90098282521901
H           -0.02452398641986       -0.94869644315839       -0.01330779946340
H           -0.89586756709567       -0.25535715595028       -1.41380168015604
H           -3.04550246637815        0.84243579943465       -0.98757607583083
H           -3.48203866866671        1.21719828412838        0.70491025527088
H           -1.75408882786473        2.79600583212349        0.96856696029608
H           -2.41978109928336        3.14516952152731       -0.63638514850245
H            2.46707211653461        3.33692333319411        5.28271710345548
H            1.00610900386773        4.32489763538306        5.56445339595142
H            1.02830045194230        2.48290021476587        7.19869122831379
H            1.23469556818034        1.29515187714476        5.90498819007191
H           -1.18461610160749        3.12477787929673        6.29430750598335
H           -1.15527620365237        1.36699654503845        6.53772871635105
H           -3.60411344221314       -4.16782030522314       -0.00470159854728
H           -2.39028594630966       -2.22533419305663       -0.88476457909487
H           -2.54597131181896       -0.27516633435427        2.89307526303263
