151
 energy: -221.328824450460 gnorm: 0.008044988262 xtb: 6.7.1 (edcfbbe)
C           -8.78612903137790       -3.61763192482618        4.76290280160253
N           -7.21691932692649       -5.71322274940459        5.75135889663476
O           -8.06197550928766       -5.05624147540904        2.91230642262786
C           -7.62333387447539       -4.16926965995939        3.93958005228349
N           -4.76985309243839       -4.31564072946779        2.28121279379062
O           -2.57216534849041        0.44363628057745        4.77103286119204
C           -8.61768789056113       -4.41332497598369        1.78440414474228
N           -0.17327656778018        2.68554347272711        3.41283807784933
O            4.28244846428414       -1.74293975974579       -5.36257995488398
C           -6.66572859273349       -4.95095300874114        4.81858957407356
N            1.12205707876239        3.13501838751401        3.69133601816888
O            4.78233729012653        3.77715854087189       -2.22668904560684
C           -6.44020445922517       -6.40275886011766        6.56814095089667
N            2.32093303675922        3.41036171160386        0.33012452166347
O            1.01161081846108        5.23318419692986        0.52669584582196
C           -5.05642210471481       -6.35734538466078        6.51656896815183
N            2.64176455194334        4.48659512417103       -2.26431842158126
O            0.54962131296400        1.32149550263189       -0.81324694014413
C           -4.47152250328022       -5.57301370784160        5.53907439972737
N            4.04756547990740        0.50740151000208       -5.50660302895885
O            3.15935825560105        3.66757553283620        2.90181209008728
C           -5.27586934101513       -4.85731263272633        4.65317715638734
N            7.68248661101233       -2.34227738677127       -9.02796303324958
O           -2.86258142783157        2.28845947858704        3.53581061762772
C           -4.63986327009424       -4.03099045965929        3.62198094415985
N           -1.35766396894294       -0.51788219849383        0.17122949061493
C           -5.23568346471271       -5.56704426549394        1.73634732862247
C           -4.10519559703405       -6.59412134450138        1.67993295962160
C           -3.83557480326371       -2.92684031288700        3.80420172688942
C           -3.44009793302123       -2.32156771631605        5.11352513912264
C           -4.26146778003279       -1.09312119715972        5.56751831092816
C           -3.87467828417270       -0.75031357460100        7.00851143299102
C           -5.75904055436071       -1.38343241303534        5.49454608041998
C           -3.96418113446609        0.11248914378426        4.66937636016909
C           -2.15503961379714        1.53917979282639        4.17389802414861
C           -0.67858566436759        1.78367381036282        4.43715541716418
C            2.04210181953901        3.19887967512703        2.71758806675513
C            1.60873012099839        2.66985462903614        1.34587986962106
C            1.98290910679988        4.67014155889420        0.03538132542692
C            2.86366441715352        5.28518894847434       -1.06108777704070
C            2.58631981865206        6.78205604151764       -1.26800328647587
C            3.32949643646132        7.30665132473239       -2.49370923051693
C            3.01794426603793        7.54855407059236       -0.01897345540370
C            3.66421099732080        3.77641913916540       -2.75281426630341
C            3.45106122652013        2.86123493331923       -3.96789020448431
C            3.06301196943203        1.46425455641297       -3.46899063488951
C            2.87461321834518        0.52753629514070       -4.65938486530330
C            4.61751606019732       -0.66248141616163       -5.84902768301148
C            5.61150496343652       -0.61336687125355       -6.89103248364069
C            6.35107996172365       -0.80996195584438       -7.82184479978544
C            7.22850568862694       -0.94616836124012       -8.98283183578838
C            8.37339390221881       -2.77545768857409       -7.83051777938712
C            8.42785346554619       -2.72213944362180      -10.20928154776389
C            6.36276267243041       -0.62811510644890      -10.21424238061134
C            8.36130819489036        0.09538761979745       -8.86798572091005
C            4.48107923281097        1.79795597568040       -5.98944143405868
C            4.71982377075318        2.75589365541793       -4.81880306946817
C            1.27634750336633        4.45722602475264       -2.75131117233033
C            1.87133215048199        1.16929148621060        1.20068331251157
C            0.84706383186655        0.47922092443940        0.29048929650712
C           -0.42251356960104        0.11037587436540        1.07402486697070
C           -1.69628198424654        0.38066760166059       -0.91291727979596
C           -0.41174898971749        0.72891441300519       -1.66404335969333
C            1.35995431209452        3.72208895974318        5.00223343375214
C            0.92749167875357        2.74179396993705        6.08849415394305
C           -0.53076505626796        2.35110102030632        5.86262152827510
C           -3.42102238248929       -2.51530274590388        2.50201135342182
C           -4.02088229414748       -3.40626205667225        1.58206833467954
C           -3.80766444531276       -3.26951738430418        0.21545898064645
C           -2.96625512780172       -2.27277256139764       -0.21757699489574
C           -2.31631487652373       -1.40124666072319        0.68045064286918
C           -2.56176177593288       -1.51721925192241        2.03865363492372
F            2.44733996557596        3.35301708485444       -4.80479754990711
H           -8.40045031248123       -3.03032099301685        5.59057597467387
H           -9.42163575611223       -2.98516126402752        4.15025284864410
H           -9.36498919842555       -4.44728379062322        5.15577852743501
H           -7.07093396400832       -3.34029698030852        3.46783481796313
H           -8.74930881079704       -5.18870688514163        1.03369215213232
H           -9.58644970800494       -3.96139908438663        2.01302721982881
H           -7.93872499842826       -3.64123153115418        1.40499952271653
H           -6.95837359589029       -7.00655689290452        7.29951740865372
H           -4.45830712129095       -6.92200403476531        7.21382422914914
H           -3.39788860343469       -5.51660967111090        5.44358862074825
H           -6.05439075420646       -5.94141386957415        2.35379624406352
H           -5.62112148079250       -5.37923437338103        0.73190089024153
H           -3.74165391680613       -6.80863417979305        2.68251077023801
H           -4.46321366667360       -7.51797721276489        1.23459869760671
H           -3.27836652251771       -6.21201535696798        1.08555466037946
H           -3.53752647787021       -3.08167653101093        5.89059359146994
H           -2.39201142957497       -2.02130107640031        5.05832663994658
H           -4.13046871395630       -1.56927391533327        7.67123075753180
H           -2.80829696102358       -0.56352340647666        7.08104793513109
H           -4.40349315773429        0.13776657776263        7.34146237809100
H           -6.32975728965933       -0.54992764082766        5.89551577194276
H           -6.06596266085674       -1.54691860448629        4.46546605114603
H           -5.99227928963362       -2.27513985573757        6.07025846052236
H           -4.55196523512359        0.98450348031093        4.97378985820894
H           -4.19748662025069       -0.10760458474205        3.62326184711198
H           -0.13443116886446        0.83670127387259        4.36263891518138
H           -0.81638854179249        3.47473473846502        3.31507871247827
H            0.54569005404769        2.88910462237982        1.21460973760317
H            3.21160732841435        3.05180368463744        0.01747506061870
H            3.91613321891327        5.15380750214231       -0.78651091873830
H            1.51031414796833        6.92367929441709       -1.40153094578216
H            4.39467743726588        7.10720412747437       -2.39913299626338
H            2.97122543201133        6.83722965657812       -3.40615065190431
H            3.18362763389346        8.37979670862124       -2.57989850319542
H            2.52562967259521        7.14647180051225        0.86234350177893
H            4.09348608405328        7.47593048104020        0.12179049504349
H            2.74666075407370        8.59477586084072       -0.11366495480089
H            3.87089033893266        1.10849164224323       -2.82924352614652
H            2.14721095481465        1.50283033555479       -2.87868151034141
H            2.02043434846238        0.86949538275498       -5.25481874446706
H            2.69376794770285       -0.49402596648050       -4.32212293027090
H            7.81982392137085       -2.45373740513561       -6.95067538428060
H            8.41178791418472       -3.86438408885968       -7.83173601370286
H            9.40487600131645       -2.39502584257334       -7.76451816504917
H            9.41810970226758       -2.24570055164528      -10.27315966506131
H            8.57764358215322       -3.80093296126053      -10.17245745847774
H            7.86035418502692       -2.49207214886841      -11.10568582047207
H            5.80761373270823        0.29020160680745      -10.03995115788962
H            6.98270938108733       -0.49197932154602      -11.09538389031739
H            5.65744937411882       -1.43600907605061      -10.38564735361448
H            8.91814428112368       -0.03866336238316       -7.94343979165372
H            9.04015766116917       -0.00308943041439       -9.71148801078481
H            7.93847715645458        1.09641664666082       -8.87566497648446
H            5.40090906920256        1.67120480409471       -6.56064821350346
H            3.70845133995684        2.21645327915097       -6.64344110026945
H            4.98367196283988        3.74189381194584       -5.20128932406683
H            5.53043997384281        2.40500159263672       -4.18255256103399
H            1.16876184263684        5.05005958083368       -3.65968250548759
H            0.95544971993061        3.43758556547097       -2.94903881600019
H            0.62890223425795        4.87041825133177       -1.98182653289446
H            2.87625783993723        1.03345153250091        0.80079253664434
H            1.83244132674998        0.69419075325855        2.17958459238671
H            1.27584296695242       -0.45994849811009       -0.09867699118616
H           -0.83683320213896        1.01202888466216        1.55020230113574
H           -0.14144765714129       -0.61023840786893        1.84083639923702
H           -2.40055748427216       -0.09249036231806       -1.59338227071902
H           -2.14963477266355        1.30637512168080       -0.52123950170498
H           -0.61275695343291        1.45984172732009       -2.44892384363375
H            0.00379856298301       -0.18892690350064       -2.10779646837837
H            2.42399915859347        3.95149951578868        5.06075459039651
H            0.78928887027750        4.65496286200563        5.08135972556941
H            1.04686188254849        3.20941401481696        7.06489330234720
H            1.55889203659892        1.85327964022025        6.04848668416732
H           -1.17107914280265        3.23067559959245        5.96434065796329
H           -0.85060253984681        1.60225758735417        6.58579822274537
H           -4.27000525480644       -3.93612145412497       -0.49663111113973
H           -2.76757251716509       -2.17765016296662       -1.27328205988656
H           -2.08275756436538       -0.85755289479685        2.74226438614092
