151
 energy: -221.332961192691 gnorm: 0.006283024915 xtb: 6.7.1 (edcfbbe)
C           -7.16253903130266       -4.43223458927407        3.23208259380857
N           -5.44287895724086       -6.62013372432565        3.69396106018591
O           -6.47212632133701       -5.51850989950104        1.13923472873134
C           -6.02456985812095       -4.76851329804088        2.26800331161416
N           -3.12982617420153       -4.28747192048504        0.65522617041884
O           -1.71653373297361        0.28550357797595        3.85221419528425
C           -7.20338722313399       -4.77014281131068        0.19276060148808
N            0.04033793751327        3.19672457240676        2.76611390189779
O           -0.84455769556701        0.70906540290079       -4.44312680054789
C           -4.97717685355696       -5.61642492245581        2.96497592465136
N            1.21487900836949        3.86188823525617        3.14020769906703
O            3.92259871102461        2.78313039912011       -2.74234756814497
C           -4.59690993398425       -7.40011693586788        4.34200665551111
N            3.14841183227309        3.96383246623455        0.03710913232132
O            2.17952826183277        5.80522102847613       -0.83013521029999
C           -3.22388716458259       -7.21083214117455        4.32067692368866
N            3.78616690686425        4.99361780870328       -3.08171949385309
O            0.69800308136743        2.74417166943820       -1.48631157996355
C           -2.72777784542507       -6.16783991419994        3.56085665638406
N            0.88876350770101        1.48002556412023       -5.69376420506543
O            3.30185328199761        4.52784767431674        2.64016289545625
C           -3.60520609228862       -5.35055057126072        2.84883259241748
N            2.92393322881601       -2.24167006874362       -2.15695049593210
O           -2.50436070288560        2.08927294163224        2.77904838936269
C           -3.04583364404595       -4.26830857877295        2.03078394334607
N           -0.48550714409545        0.44228913708146       -0.41546645714136
C           -3.59999101521771       -5.38402202664841       -0.15425842796921
C           -2.46370266137751       -6.33952929296187       -0.51228363670542
C           -2.34128146827497       -3.16185486180611        2.45069676911564
C           -2.01132263877737       -2.73661016351145        3.84510501345250
C           -2.98054935794168       -1.71033430493418        4.47708122985565
C           -2.55121787973369       -1.46241553489157        5.92518807978622
C           -4.40917389753218       -2.25233396003677        4.44966993148620
C           -2.98102490294229       -0.38027679514696        3.71143664763283
C           -1.61535814705040        1.50720810765781        3.35990144524508
C           -0.26893698482598        2.12157728907820        3.70336933396167
C            2.24892103214155        4.00283245319818        2.29415189482607
C            2.01752563792656        3.56699824947319        0.84485454596116
C            3.11810520570017        5.01781895886267       -0.78239091116158
C            4.32647394392991        5.13817725690523       -1.72135049193602
C            5.13378025139837        6.41238464723150       -1.46179744915241
C            6.37444437545406        6.45247203625274       -2.35303736163513
C            5.55103194541632        6.42794527266374        0.00961035697982
C            3.56189617556454        3.72831114988145       -3.45251259701802
C            2.83142731790205        3.38451151766031       -4.76981625576965
C            1.32263166663023        3.57718855121849       -4.55702492003061
C            0.47937947065950        2.86301371098680       -5.62127434941728
C            0.29034551221559        0.56494487522228       -4.90361966970552
C            1.06700619250534       -0.60033661556661       -4.57086395968766
C            1.62868901224743       -1.50622104104023       -4.00775757110859
C            2.28302080531660       -2.66810209053025       -3.41045784894387
C            3.81748574753558       -1.11142315353709       -2.29016800064798
C            3.56035660349158       -3.31246643907073       -1.41664678896447
C            1.14519890431135       -3.65674841467272       -3.10155379149473
C            3.25450995053713       -3.27603449232876       -4.44784663746350
C            2.24502722696571        1.33901381399959       -6.17002751865816
C            3.21383383448693        1.95474652807792       -5.16643172179600
C            3.22146202295372        6.18012986120081       -3.68892475898721
C            1.74242424276486        2.07626640921546        0.64441000574032
C            1.49666620230914        1.75693997994854       -0.84197430043915
C            0.84851467700351        0.37597693266695       -0.98176997010491
C           -1.29671797116788        1.39322327132780       -1.15864232220618
C           -0.64444797736357        2.76344367867910       -1.02570039655682
C            1.24349236746063        4.42163169093376        4.48307810447533
C            0.96872343472245        3.32738118741714        5.51044225994026
C           -0.33823021973720        2.61777200957364        5.16144383845093
C           -1.96374924103320       -2.46102409333519        1.26787300073040
C           -2.46828296084758       -3.19607923388317        0.16791194161183
C           -2.27981778230559       -2.75966298330037       -1.13953015878775
C           -1.61459419925845       -1.56958604519302       -1.33622482374878
C           -1.11662280606189       -0.82955168032002       -0.25334970605673
C           -1.25805494650319       -1.28242044035994        1.03971933788081
F            3.25429848417782        4.22373050159786       -5.81483466645220
H           -7.88742447800725       -3.77769212616917        2.75674614498627
H           -7.64713763451717       -5.35427479500958        3.53787734140383
H           -6.76067908432824       -3.93234965693305        4.10739003387712
H           -5.55460508682246       -3.84084146969523        1.90167170029760
H           -8.18199425294025       -4.47176956278719        0.57795071479283
H           -6.64607489078648       -3.87550731539348       -0.10946141659620
H           -7.33906692502142       -5.42494315935493       -0.66497514536245
H           -5.04651715448070       -8.20528070574424        4.90601921553145
H           -2.56739997813216       -7.86262081269336        4.87351134100969
H           -1.66521302943416       -5.98462935346114        3.49731724002381
H           -4.38182116948068       -5.91899456721647        0.38768290370763
H           -4.03803178159637       -4.96797481304629       -1.06513049803393
H           -1.67262420838580       -5.80665411022007       -1.03475377547966
H           -2.04875915686134       -6.78601922522694        0.38823596880370
H           -2.83892837492261       -7.13164032352464       -1.15330893821210
H           -1.99928691889544       -3.61502099544150        4.49427586543516
H           -1.01202009274891       -2.29823695517106        3.84214957784028
H           -1.52634953042360       -1.10380752133978        5.95977861275997
H           -3.19500117871107       -0.71973128910097        6.39028106040167
H           -2.61852179444990       -2.38317539743760        6.49821562523403
H           -4.75946129873444       -2.33685565890588        3.42523730855007
H           -4.44392151857390       -3.23606708819696        4.90966930066970
H           -5.08091776526126       -1.59035516841150        4.99012176288107
H           -3.75842386174585        0.28460332475624        4.10212407782967
H           -3.17545855748735       -0.53857028765320        2.64671906679264
H            0.50911760899724        1.35720985632753        3.61322569893123
H           -0.74506744488714        3.84933306342335        2.72741577146402
H            1.16847972322901        4.15667525724018        0.47902931022723
H            3.94891617749183        3.35152503671433        0.03836740088913
H            4.98319014272285        4.27667710894270       -1.56914645748695
H            4.50178980465546        7.28478100946567       -1.64387676241800
H            6.91792539173213        7.37863498942808       -2.18867268642899
H            7.02976992423580        5.61949346616339       -2.11015315925130
H            6.11689953965294        6.38193603091112       -3.40574184149459
H            6.12336578492814        7.32605306335664        0.22188796966044
H            4.68185759808690        6.40955295216775        0.66387774917389
H            6.16720630920753        5.56290664603629        0.24281116031034
H            1.07218181343798        3.18480138431620       -3.56868720253330
H            1.08808203637650        4.64061310526504       -4.56611715994426
H            0.62158818738463        3.32491195083034       -6.60115622560570
H           -0.57567421589198        2.90335392489980       -5.34624904560027
H            3.31831701832696       -0.30373357654321       -2.82092777276386
H            4.06666545662424       -0.74981163199344       -1.29278373481525
H            4.75899772828836       -1.34457608139900       -2.81018971318940
H            4.40438065888817       -3.76986701892463       -1.95199277821612
H            3.93693589765694       -2.89354861141547       -0.48456058641736
H            2.83154708874473       -4.07877911425164       -1.17030916645109
H            0.51571850724930       -3.25225688608699       -2.31194724373087
H            0.54112481113130       -3.79793774387653       -3.99459144134179
H            1.53628832488144       -4.62176990152781       -2.79498844943992
H            4.22367997895734       -2.78473414780515       -4.39634016528698
H            3.38706563518341       -4.33867432907258       -4.26265788803168
H            2.86142336044934       -3.14404966921870       -5.45279350240019
H            2.47776733236761        0.28353409891267       -6.31274623460590
H            2.31214966066396        1.85725288704862       -7.13028338119081
H            4.22509860444259        1.97461705909726       -5.57314143857038
H            3.22248323179474        1.35591423320816       -4.25586571787436
H            2.84571365530936        5.97508512084055       -4.68261187443846
H            2.41251440511937        6.55256276010375       -3.05606176098419
H            3.99160594136240        6.94372098413494       -3.77114452854476
H            2.59408691258822        1.48964061568086        0.98850981887209
H            0.85499236494881        1.79037946591738        1.20299871637612
H            2.43920301151177        1.78592254851082       -1.39816613564466
H            1.43005410576197       -0.37055400091685       -0.43979576781601
H            0.82593328680601        0.09004801612021       -2.04574806231330
H           -1.38169288687263        1.13234352237429       -2.22713238639810
H           -2.29472917325036        1.41994612790404       -0.71612344167138
H           -0.68710898811147        3.07926217219080        0.02279778223999
H           -1.15219990878794        3.50144429185827       -1.64894687603174
H            2.22504171975097        4.87323899636851        4.62448261112953
H            0.47512853001495        5.20075637126556        4.54462422952822
H            0.90109959698564        3.77178337528508        6.50263435441986
H            1.79113907980958        2.61131340550311        5.50462354689265
H           -1.17745882690144        3.31109718709131        5.25942662056234
H           -0.50763273047363        1.77163857524945        5.82547737853105
H           -2.65158157955791       -3.32241013135925       -1.98223903276972
H           -1.47300114268558       -1.19200840170950       -2.33878349931773
H           -0.83373189636606       -0.70828776080067        1.84582962346934
