151
 energy: -221.318140309966 gnorm: 0.005882465461 xtb: 6.7.1 (edcfbbe)
C           -7.96317050943732       -4.47223473697891        6.05202854714478
N           -6.02830809224319       -6.49534295500145        5.70910582782486
O           -8.11108737856868       -5.62585278521752        3.88631418350948
C           -7.32157241731265       -4.74776566105973        4.69143659069545
N           -5.19010924245025       -3.88079693469274        2.03924923572420
O           -2.35846947985896        0.31790376052926        4.73821750994813
C           -9.28692879112029       -5.05945603861025        3.34765927025590
N           -0.25207293709350        2.74349359192281        3.17764156424435
O            2.36998998346024       -0.70745285498153       -6.85064174114288
C           -5.99691164580216       -5.46227402861499        4.87686918769604
N            1.12667141799734        2.97894188772822        3.15440592440357
O            4.31358562316632        2.45651441347483       -3.24786894311539
C           -4.93202525159477       -7.19825959319704        5.92068533616923
N            2.03405550939431        3.08592890794930       -0.36473737479336
O            1.56351776556457        5.28056602160211       -0.59651679170310
C           -3.71960852895155       -6.91165894628981        5.31193725420732
N            3.26718118703918        4.43776565226796       -3.06269070014455
O           -1.23887422734974        2.78833797354874       -0.98804909136860
C           -3.67466070461707       -5.83087355259650        4.45339083243444
N            3.29869377782855        1.31146776353027       -7.32633169390762
O            3.05144619033406        3.10314843068424        2.01219053494269
C           -4.82739589668206       -5.07782777765231        4.21267125308679
N            8.10030532445783       -1.01123281289340       -6.45022844951635
O           -2.89870092516047        2.33194257755410        3.91096695647802
C           -4.66872246761335       -3.92711003860973        3.31355378188140
N           -2.44516217875754        0.56712322912577        0.21293922584979
C           -5.97895622285898       -4.91260585392584        1.41270856173184
C           -5.10040899568444       -5.90938239865322        0.65838150291150
C           -3.82837878209882       -2.85629006261647        3.52330469942750
C           -3.12409519467644       -2.49540723606476        4.78950916144005
C           -3.82617189513630       -1.39538052972270        5.62238053313819
C           -3.13830124717845       -1.30696811558587        6.98737171060864
C           -5.30456873290318       -1.73209971676153        5.81282390321889
C           -3.73655720838589       -0.03309620410858        4.92396890957276
C           -2.07764724284793        1.49816930492235        4.22011579630233
C           -0.57318239741936        1.68407997139565        4.12792642416572
C            1.83197980499381        2.96001381430602        2.01392306756369
C            1.06516991650003        2.85348576149408        0.68748104324910
C            2.29818566663300        4.32197405354486       -0.80761953571766
C            3.58211165959707        4.44467097386483       -1.63567710440147
C            4.36977825602560        5.69149312999215       -1.19857781177067
C            5.61736458977868        5.87372805922201       -2.05794277410187
C            4.76384581176481        5.52638073546674        0.26830441036369
C            3.73764105531636        3.41194999450267       -3.77692726724014
C            3.52635805681783        3.32703173325580       -5.30103208869745
C            2.22818336793807        2.53895793223935       -5.53266631398869
C            2.09980957689851        2.03981177119076       -6.97533791801755
C            3.36604826927082       -0.01270923711214       -7.05895442476007
C            4.68551903725410       -0.58541266240253       -7.03756360172123
C            5.72941998177557       -1.16241221692149       -6.86448157099108
C            6.97415474884334       -1.91051449447342       -6.74121991000443
C            8.02153201364758        0.29302308886316       -7.07171591380017
C            9.40753525477617       -1.60616118011946       -6.64412404370672
C            6.79389832528451       -2.87236596937860       -5.55244595313920
C            7.11855639741027       -2.71246269626638       -8.05335808142467
C            4.46615282729473        2.16103987090659       -7.34334339518793
C            4.75634685669705        2.65702444219245       -5.92774678222715
C            2.47749971635770        5.54976982936789       -3.54960160594171
C            0.31796544634070        1.54005136833561        0.46932980392145
C           -0.51838290670272        1.57679968392589       -0.82485953973423
C           -1.48675637655430        0.38405987645686       -0.85824685882402
C           -3.23266086693876        1.76432936853522       -0.01326122638289
C           -2.28006618154076        2.95891347993913       -0.03886792046713
C            1.76783202314945        3.28739658758808        4.42672066824243
C            1.47864107058190        2.18993563691616        5.44614352510560
C           -0.02942187896052        1.97486874652754        5.53974755759667
C           -3.79014931002421       -2.13278267541408        2.29865122342648
C           -4.65186422611321       -2.80167393569252        1.39370528814962
C           -4.81613636043615       -2.33982710562226        0.09097950467026
C           -4.10219603004970       -1.22777861657295       -0.30306858152620
C           -3.21480059459011       -0.58270323898457        0.57197848946635
C           -3.05460148412718       -1.03396685677132        1.86317614192492
F            3.40840645176019        4.58773233773161       -5.89601543948082
H           -8.90219291272625       -3.93780510685426        5.94170563971602
H           -8.13923933571211       -5.42018956670519        6.55136441259795
H           -7.29255806581249       -3.86993885717650        6.65635836403808
H           -7.16149144383378       -3.80387078538275        4.14720109111432
H           -9.04620977837283       -4.35676531342687        2.53997209966235
H           -9.86232393075046       -5.89453305380477        2.95142201995231
H           -9.87907356178863       -4.54416381603207        4.10681639495459
H           -5.03671085646458       -8.02371798514489        6.60743833736183
H           -2.84472764017773       -7.51115436135986        5.50442233641802
H           -2.75807926220925       -5.55966535839986        3.95046159538358
H           -6.54956018464539       -5.43796812414714        2.18145690116166
H           -6.67879369205264       -4.43510810323632        0.72177877540921
H           -4.41458808627366       -6.40081015622912        1.34575725480182
H           -5.72285552796066       -6.66528601636427        0.18737091496472
H           -4.52036931509085       -5.40022885576252       -0.10840211526588
H           -3.05066544873470       -3.38486110808315        5.41838485495815
H           -2.11449533647346       -2.15432043891952        4.55444021480081
H           -2.07013953784500       -1.14809658745794        6.86551747793450
H           -3.54760921087652       -0.48213456896689        7.56619457084849
H           -3.29294511624641       -2.22838561761883        7.54362799328429
H           -5.76915720667095       -1.03524214138773        6.50754740467130
H           -5.83555249915839       -1.68221722424142        4.86401712745263
H           -5.39827321469027       -2.74105950098520        6.20934931968697
H           -4.21709146654777        0.74546949203956        5.52694030306492
H           -4.22528926234976       -0.05659710870288        3.94501417584518
H           -0.12630402786589        0.75591615303054        3.75620383213360
H           -0.75976618327174        3.59287455761532        3.43052444551324
H            0.36145544759472        3.69205069400227        0.64511403340495
H            2.73078145601723        2.36431668340841       -0.49327074504668
H            4.20487743670450        3.56213396538319       -1.46222245004486
H            3.71799436414117        6.56481024986296       -1.29025862408921
H            5.36478983077099        6.03997734716667       -3.10191932567673
H            6.18722051514815        6.72696041711128       -1.70154228108075
H            6.24492748157516        4.98671388034013       -1.99593846387549
H            5.41450425109728        4.66377310616694        0.39382991356638
H            5.28625523381037        6.41207443266604        0.61798862113156
H            3.88660974406416        5.37312236873360        0.89314043243032
H            2.24687149362091        1.67697817014283       -4.86108713661845
H            1.37170584883390        3.16308135215604       -5.27416510216405
H            1.98416390714983        2.87822240069936       -7.66555155105034
H            1.24437074285844        1.36776742659119       -7.06052071884389
H            8.91602080576053        0.85288443011408       -6.80531457019760
H            7.95094497155087        0.25542093949221       -8.16962310513051
H            7.15772685820273        0.82544020876707       -6.67858921576164
H           10.14127052832524       -0.96929603447795       -6.14388228245905
H            9.44062411909516       -2.59071673924899       -6.18107668203458
H            9.69039786458228       -1.69459630195823       -7.70584888436013
H            6.76103977825199       -2.30179940960210       -4.62856911864534
H            5.86396619673830       -3.42483460085272       -5.65950514073435
H            7.61679695253198       -3.57913667089741       -5.50251531442340
H            6.21413707394290       -3.29102146684977       -8.22321032066000
H            7.25986867625088       -2.03965045956184       -8.89677494770277
H            7.96279831638770       -3.39283765368680       -7.99140592599414
H            5.31893034028913        1.60660597367486       -7.73321541874084
H            4.25602339412777        3.00620082339936       -8.00333075790470
H            5.57241541654117        3.38045521901599       -5.93919007149039
H            5.04131887212772        1.81928458686817       -5.28945098941703
H            1.86091803779914        5.25614708684760       -4.39359653524414
H            1.82335533264890        5.87721039385246       -2.74158727726695
H            3.11798543247290        6.38114640925301       -3.85134908838292
H            1.02678483719889        0.71538076975771        0.39905654217353
H           -0.35537174806183        1.36669037149692        1.30564610596294
H            0.14404030019642        1.54733221605948       -1.69685995753652
H           -0.94280689861892       -0.54716853061524       -0.69518028486811
H           -1.96645344833904        0.34682420964237       -1.85316658960152
H           -3.79749014659398        1.71627906582432       -0.96234979410256
H           -3.93517801301218        1.88443563128777        0.81411744973737
H           -1.86642971921273        3.10083452322799        0.96654087637161
H           -2.80138039006516        3.86580657670246       -0.34949870840507
H            2.83560232327921        3.38389666719326        4.23177429545678
H            1.37892954282920        4.24778124073606        4.78287706402851
H            1.88303318114498        2.48186579281469        6.41432074552406
H            1.96367581181222        1.26531344476048        5.13142566561503
H           -0.51266488190333        2.87289743822556        5.93117910303234
H           -0.26233578202193        1.14002340256937        6.19828772667432
H           -5.47466445706885       -2.83789920749395       -0.60521407886664
H           -4.21346438060823       -0.85336467235238       -1.31104661372721
H           -2.34212889915685       -0.54064465763582        2.50146926071909
