151
 energy: -221.326394152645 gnorm: 0.009108654464 xtb: 6.7.1 (edcfbbe)
C           -6.83089096142172       -4.58468648577955        3.08045627327662
N           -5.04019592942192       -6.71196436137678        2.95311553990661
O           -6.28829026562702       -4.99304216343717        0.71872824364049
C           -5.76222644997825       -4.61296012439654        1.98955332680204
N           -3.30463009038544       -3.85479728185052       -0.00512675419713
O           -0.93669898804282       -0.21110205561937        3.79648833647677
C           -7.07083261584917       -4.00303717954329        0.08978957344003
N            0.88115634590293        2.77434455876830        2.99734517954869
O            5.08197192060211       -1.05175715829766       -4.84954737708301
C           -4.66741785843033       -5.61055260526656        2.31872270114484
N            2.23200775748326        3.12424029362538        2.88032176753866
O            4.60701322115561        4.06274586843692       -2.84732327684253
C           -4.12754522364801       -7.61008120350641        3.27811655945280
N            2.54191560120768        4.59078126329577       -0.45737552543244
O            1.44703477675185        6.57354047549142       -0.44744310572354
C           -2.77835396341603       -7.45910817336021        2.99688722401077
N            2.77191349021818        5.31573676740657       -3.20551827411058
O           -0.93608620294916        4.06355527372158       -0.38815265619152
C           -2.37906642656113       -6.31480943002031        2.33001980642978
N            3.34804375568333        0.39665661656774       -5.08979412387192
O            3.94854414248438        3.86529303692120        1.63895783155553
C           -3.33107015876358       -5.36419569812757        1.96827823774054
N            2.45506092597817       -4.12154500378853       -1.58267658501612
O           -1.60335297845790        1.92917702086333        3.85047261886138
C           -2.92771943536485       -4.12687607230358        1.29171690184356
N           -1.41029460393493        1.31102067961408       -0.31535079029849
C           -3.76906500113585       -4.82243382366872       -0.96738916687937
C           -2.60589290242362       -5.37837007563608       -1.78843201041432
C           -2.23151832458247       -3.06516415246470        1.82572227620999
C           -1.56840590700101       -2.99379157091127        3.16550846728463
C           -2.28183715260397       -2.18675103980701        4.27558792305416
C           -1.54051785323370       -2.43342438544399        5.59301471248486
C           -3.73723410980296       -2.63268184837799        4.41227705359834
C           -2.27981880489881       -0.68036616182369        3.98167277367679
C           -0.73804255754592        1.09382793397120        3.71461872183766
C            0.73048152035113        1.39933036543607        3.47141314380691
C            2.74952611241406        3.62148176824318        1.74386242647491
C            1.79139862491362        3.93709426856759        0.59449505804120
C            2.31107325335032        5.83582800849099       -0.89557226862418
C            3.18632304913267        6.19606916810848       -2.11143760437758
C            3.14081541734021        7.69359043543630       -2.44200746853487
C            3.71645289587000        7.98337355687885       -3.83029994896297
C            3.94764425646599        8.43620593036948       -1.37263139658825
C            3.56360297335788        4.27199358818976       -3.47468890007320
C            3.15115702420422        3.21133380451784       -4.51055504725835
C            2.33729478108537        2.15108493957227       -3.75595952236248
C            2.08667517116145        0.92258093018220       -4.63047968979914
C            3.95555594657891       -0.66818292253100       -4.53158563556814
C            3.19075472385251       -1.36136693716789       -3.52544469732804
C            2.70476999736283       -2.01185632476784       -2.63576948526760
C            2.02872686847264       -2.71746215003880       -1.55075084912878
C            3.89091346922591       -4.31206144631482       -1.59543409166000
C            1.83899398886758       -4.97311468580679       -0.58663746272616
C            2.35395374251190       -1.97142381802340       -0.23794666332703
C            0.51842033232537       -2.62276860940829       -1.82699190136735
C            4.07387690811904        1.31816038091559       -5.93262239436202
C            4.39675997300551        2.60205325990974       -5.16266038405989
C            1.46191382736573        5.55672322284412       -3.77949698979810
C            1.08511301239257        2.71003964950374        0.00909684067359
C           -0.02629569586301        3.14137688476594       -0.96271955432307
C           -0.78640978258008        1.90706080845147       -1.47220016853151
C           -2.39833688558083        2.21539261336235        0.24851563722727
C           -1.70845837833137        3.51180899217120        0.66736140799654
C            3.06155313852561        2.94299648333025        4.06435546559517
C            2.97493083833023        1.49841443693951        4.54806403811436
C            1.51010061625189        1.13338082045722        4.77231736203032
C           -2.18723191176684       -2.07363471340354        0.80264354146489
C           -2.85787582262800       -2.60437021426593       -0.32726067236142
C           -2.98710114959789       -1.86896667429148       -1.50104389929722
C           -2.49794280968496       -0.58006181198222       -1.52094309794944
C           -1.85695748711110       -0.03370843132696       -0.39975888009270
C           -1.66045161077828       -0.78912930680709        0.73703535111219
F            2.36190378503238        3.75058683024249       -5.53028488643203
H           -7.54849986897447       -3.79229156122190        2.89006936929788
H           -7.34351342734751       -5.54141864001667        3.10556354835261
H           -6.36268672908146       -4.40812443306216        4.04409325935339
H           -5.30800298520607       -3.61314003180717        1.88896848739899
H           -6.52218587379099       -3.05284245203794        0.02636522482725
H           -7.27648265045176       -4.37893843794855       -0.91224286674198
H           -8.01726176696133       -3.83742831581258        0.61542838066206
H           -4.50091633318563       -8.48482444824767        3.79298423698176
H           -2.06728871319849       -8.21417515151310        3.28936498747808
H           -1.34115328269737       -6.15209851593985        2.07902268238504
H           -4.28290847982360       -5.62633119299552       -0.43463460711700
H           -4.49346423363805       -4.33512099398875       -1.62676205851422
H           -1.86458672029229       -5.84076897314502       -1.13743178326775
H           -2.97034152795287       -6.12516888187597       -2.48723880503442
H           -2.12170264535523       -4.57824686217599       -2.34792317272249
H           -1.45001987859471       -4.01238776807065        3.53996491272853
H           -0.57428862612918       -2.56183355419368        3.03121539618396
H           -1.99651404589569       -1.86347662508423        6.39893431958876
H           -1.57830929989371       -3.48722583827237        5.85521549345546
H           -0.49967791542761       -2.13402239335493        5.50334415721509
H           -4.30374396728714       -2.36394409357907        3.52427384617831
H           -3.78741650502731       -3.71171868450599        4.53810128091821
H           -4.20290707119208       -2.16013456672991        5.27406970268373
H           -2.73324354872514       -0.12624547903017        4.80986948017896
H           -2.85057790852410       -0.46177772102112        3.07369910995533
H            1.10372558084932        0.73110660270250        2.68774536889085
H            0.40127614851553        3.40586341534820        3.64006601288823
H            1.04138291953993        4.65531046458183        0.94534895473657
H            3.38245081107328        4.11872169257377       -0.76495582330145
H            4.22260439945694        5.92275571374257       -1.88321545184061
H            2.10297728262411        8.04262072321218       -2.38577161903005
H            3.86840690930285        9.05373861362687       -3.94626688597157
H            4.67827432063977        7.47878336926610       -3.95678301666938
H            3.04391190458122        7.65116240864444       -4.62009337371321
H            3.57594070062986        8.19382046727871       -0.37603361780504
H            5.00063435242913        8.15408986447665       -1.43119783745905
H            3.86474875078618        9.51012963493065       -1.51940324770308
H            2.91366883753024        1.86291672566788       -2.87513658795356
H            1.38639681722967        2.57206142158785       -3.43406055037816
H            1.49125969553131        1.20561499320417       -5.50317993076850
H            1.55752812625494        0.15747107367445       -4.06191583049531
H            4.09421327240094       -5.35848841182409       -1.82720942936132
H            4.34237415181681       -3.69366817584450       -2.37143684681295
H            4.37159105645128       -4.07622334715730       -0.63120794492997
H            2.20875435546471       -4.78629017444109        0.43242608652446
H            0.76081990932176       -4.85078048821056       -0.60436327016450
H            2.07092028070981       -6.00617167088586       -0.84441973152396
H            2.00841548109074       -0.94335321021761       -0.30924849626035
H            1.84378482600448       -2.45304295812828        0.59197954616996
H            3.42541660154373       -1.96701184913099       -0.05183338523137
H            0.25502105937971       -1.60110692812044       -2.08899047581813
H            0.25646909322720       -3.27808605103109       -2.65230120225776
H           -0.05659309935430       -2.89396300906628       -0.94679194492362
H            4.99716018289584        0.83479683074572       -6.25333700604837
H            3.46037130037913        1.54980405176198       -6.80678391029875
H            4.83090338839428        3.33763561885935       -5.84138034512163
H            5.11869551257799        2.39723679720861       -4.37014291123000
H            0.93188396479227        6.25353356661713       -3.13599313465644
H            1.54042144488563        5.97779143869945       -4.78154155655702
H            0.87979211473441        4.63986863532518       -3.84155738706800
H            1.80767683295612        2.09528688683581       -0.52734229039086
H            0.63477551303922        2.12216282359566        0.80299499527759
H            0.40826047376213        3.70248023486928       -1.79463973966734
H           -0.09607982736965        1.18910815442408       -1.91732898885145
H           -1.51603471146057        2.23249320061045       -2.23519745054801
H           -3.19407845980687        2.43870437420357       -0.48517653083377
H           -2.85056022637834        1.75354907569816        1.12742607557564
H           -1.08085734805311        3.32618020407073        1.54580734325058
H           -2.44649436584718        4.27696846675506        0.91175454181283
H            4.07984490333686        3.21567461620474        3.78875871208251
H            2.70451884115176        3.62500710818114        4.84419346102954
H            3.53964572337072        1.39160603402475        5.47253900808192
H            3.41006847985807        0.83858917247314        3.79648084771949
H            1.09044554113620        1.74775656888021        5.57269828431913
H            1.40765065599538        0.08518273868603        5.04865287905874
H           -3.47917779098730       -2.27869870830020       -2.36928856465632
H           -2.61761112785153        0.02230135354108       -2.40910965990030
H           -1.10918344184198       -0.36158937353657        1.55423016028688
