151
 energy: -221.328743954465 gnorm: 0.004456859537 xtb: 6.7.1 (edcfbbe)
C           -8.56343100801911       -3.62861131313542        5.13754516962379
N           -7.10257993705717       -6.01186795481745        5.37834973333162
O           -8.28553068182272       -4.66606601225706        2.93571371603959
C           -7.59977454064399       -4.06529241652813        4.03490708245571
N           -5.02730658399400       -4.08631327495535        1.95129622824317
O           -2.17114128476085        0.11340927596330        4.74997787174158
C           -8.85446225963632       -3.74002057539868        2.03840719608024
N            0.04420258803561        2.59579508212023        3.55324958251944
O            4.85356609041926       -1.81558362319730       -4.35245866513804
C           -6.61145805050427       -5.08585420890321        4.56792596403812
N            1.36653576890131        3.03258134965611        3.69596751180225
O            4.67451024109006        4.04576899649571       -2.43841976038435
C           -6.29016382538379       -6.91349141435302        5.89977682519155
N            2.17289258077253        3.65580432935933        0.22686946013290
O            1.08029941875716        5.59993845475852        0.58276563697499
C           -4.92386082019447       -6.92806397544861        5.66605130264050
N            2.47646026273086        4.52473351123540       -2.33245247717255
O            0.16086001118277        1.81709540549909       -0.86165940296681
C           -4.40315171190828       -5.97135301736092        4.81383014697016
N            4.14185174379610        0.24031150537838       -4.99874244119226
O            3.28056036411412        3.68867853943180        2.71199962066279
C           -5.25196999489945       -5.03380582551062        4.22748547450160
N            7.10166662004553       -1.79951789905651       -9.13719697408332
O           -2.57639187129985        2.25473831676193        4.23411999626387
C           -4.69849606270837       -4.05146071801126        3.28905332173219
N           -1.68781703401240       -0.10491406361214        0.07000345437416
C           -5.66838396402913       -5.18999444453122        1.28055298655569
C           -4.66167649244631       -6.29005287584016        0.94528675736570
C           -3.80015107949439       -3.03756103931439        3.53711437609195
C           -3.18395308542156       -2.67420902884873        4.85048989175964
C           -3.82212410765440       -1.47473808792566        5.58875551940413
C           -3.19934525772372       -1.37206901606967        6.98361411984137
C           -5.33305884012076       -1.66631838311442        5.71221816377162
C           -3.58040336621368       -0.16333314241753        4.83252883727390
C           -1.80790891260005        1.34109157529836        4.44888705199823
C           -0.29723188742227        1.51240963163469        4.46810873359892
C            2.14183804128103        3.24416670797383        2.62040968228111
C            1.52048463964708        2.89212134961011        1.26474901200811
C            1.91023885280104        4.94254977758147       -0.03066226049582
C            2.70700504269460        5.46534703669482       -1.24094363413546
C            2.35910100066397        6.91210946356582       -1.62723460621750
C            2.95523488764928        7.25664582232075       -2.99098113964787
C            2.89518886658918        7.86643094397041       -0.56312320718393
C            3.52249291211127        3.86235868129997       -2.83782145063593
C            3.30404269262152        2.74735127194502       -3.87178156479224
C            3.13176444418568        1.42823141628466       -3.10621862314852
C            3.02482023092253        0.25504340204849       -4.08101354349700
C            4.96169693537017       -0.82139867801601       -5.07445398057258
C            5.95901756316478       -0.76034712211981       -6.11382205087857
C            6.76567397707945       -0.88961640319578       -6.99823307586152
C            7.71605235392779       -0.94789023709780       -8.10753352707276
C            6.84038259747838       -3.15446779518009       -8.69122264889566
C            7.76942798950819       -1.79769868636298      -10.42312129741838
C            7.88841971017522        0.48640849001774       -8.63114071187777
C            9.06406743389847       -1.46601322808757       -7.56570654607599
C            4.29953223169187        1.45164647882142       -5.76732619659321
C            4.49317772641648        2.64539491607259       -4.82991672576175
C            1.09050499459414        4.34004885731734       -2.71545299322582
C            1.67116136302529        1.39486638025469        0.97262323505594
C            0.54781699149041        0.83526714199176        0.08628775184691
C           -0.64069095301714        0.37194496496216        0.94399194977757
C           -2.11549691595109        0.95616295119535       -0.81785712913921
C           -0.91549606748538        1.37226173346897       -1.66578274218771
C            1.81222529963263        3.38004760169960        5.03683318540710
C            1.59370181340187        2.18661167159871        5.96180953343543
C            0.11880996176877        1.79442890622134        5.92701849109851
C           -3.53545414465060       -2.42359255811125        2.27662345000981
C           -4.31471035556357       -3.10503122527168        1.31506575402533
C           -4.27154352486248       -2.73321421987693       -0.02415623784251
C           -3.43061370912257       -1.70984496280033       -0.39085195520416
C           -2.61315241683857       -1.03990532955835        0.54353461654329
C           -2.67744609734535       -1.39749921796756        1.87918070967282
F            2.17275147869424        2.97110679599139       -4.65911538991955
H           -9.08696315064702       -4.50198275563196        5.51318222555078
H           -8.00708893853718       -3.16691006260435        5.94710313822682
H           -9.28377909734823       -2.91193385164198        4.75342986995676
H           -7.03753674386073       -3.19696363200975        3.65784002642650
H           -9.35382117819438       -4.33061389303971        1.27381971371880
H           -9.58548564577396       -3.09118188189167        2.52877394529062
H           -8.07684993519244       -3.11686634113249        1.57815122680085
H           -6.76118062751985       -7.64695109514585        6.53995364559470
H           -4.29161194222436       -7.66867691365612        6.12893724378108
H           -3.34726646177865       -5.95025728734459        4.58439412461285
H           -6.46089801436362       -5.58678575365370        1.91883857899076
H           -6.12509536187313       -4.81115226752022        0.36357746398218
H           -4.23721379768953       -6.70311614483857        1.85770094287055
H           -5.15275955985522       -7.08891132339975        0.39770097375650
H           -3.85429455836045       -5.88863418467853        0.33692396890847
H           -3.24955559215948       -3.53660399991293        5.51640256163532
H           -2.12868166457666       -2.44557026716755        4.68826549078117
H           -2.11757354199394       -1.29673953622760        6.91081683541907
H           -3.57399979590600       -0.49325952135748        7.50305988661235
H           -3.44860119690553       -2.25134776299999        7.57113123070870
H           -5.80520650274481       -1.60447473739106        4.73540126288498
H           -5.54932100150126       -2.64279002901749        6.13823188030733
H           -5.76616448073470       -0.90209786543528        6.35243803326376
H           -4.06542604796081        0.67454312223929        5.34307262097204
H           -3.97823045314980       -0.22230790498905        3.81562312734926
H            0.18396290948607        0.59360172829298        4.12055026994703
H           -0.60704645225774        3.36951134334678        3.71039128425832
H            0.46703475550875        3.18478161873181        1.28008363892503
H            2.94886699799206        3.22108217743690       -0.24622083768649
H            3.77528333648969        5.41355379559037       -0.99857943884460
H            1.27053150156688        7.01483428202713       -1.66461242354058
H            2.49323628559995        6.67801251893084       -3.78604735228534
H            2.80463748989652        8.31118576102842       -3.20354080733704
H            4.02414275658617        7.05089297876793       -2.99406198618335
H            3.98287910995587        7.83066750888173       -0.53252150724341
H            2.58704028756354        8.88588927181946       -0.78594416661309
H            2.50826250414064        7.59724005350651        0.41783127842680
H            4.00700757587161        1.30487988947315       -2.46623522209019
H            2.23874219792629        1.46941915427412       -2.48114711865127
H            2.09941754789321        0.34705872218367       -4.65974048931004
H            3.02333468939570       -0.69351020315413       -3.54085369781059
H            7.74315993020476       -3.78338053234015       -8.66014198892279
H            6.39159987592014       -3.13488981063356       -7.69903645447611
H            6.13033577149401       -3.61183168843142       -9.38035870046103
H            7.22382996714628       -2.47103481612294      -11.08075526873539
H            7.73792901826453       -0.80254425155093      -10.85869371335506
H            8.81334991079826       -2.14064113391510      -10.37769463424211
H            6.96984261742970        0.81987455915052       -9.10592950037005
H            8.11610547360385        1.14856531280955       -7.79959719852374
H            8.70545256251022        0.53736724379396       -9.34448266565935
H            8.93675708565801       -2.41931384758609       -7.05886938684220
H            9.77212005668311       -1.58764188811396       -8.38182660839048
H            9.47063256307964       -0.75111637060754       -6.85600929128189
H            5.15716544253775        1.34926987232276       -6.43171494213305
H            3.39728055500874        1.60837261023916       -6.36833717336481
H            4.56727939294073        3.56418518367020       -5.41125885466598
H            5.40129821910369        2.53580760609697       -4.23828835406024
H            0.89367440104846        4.75587421594566       -3.70307209256827
H            0.82626278119722        3.28630680519613       -2.70759960051417
H            0.46556621483264        4.84752925808315       -1.98637137999105
H            2.63788229990538        1.23966050336179        0.49235158848526
H            1.67389944549101        0.83967771228894        1.90895561799406
H            0.91808449209046       -0.04821304027631       -0.46138804991552
H           -0.97683953019784        1.20424472491898        1.58533622157104
H           -0.29532224695409       -0.45160242104828        1.56823999297044
H           -2.92284336647575        0.61681353225526       -1.46225971998519
H           -2.46621791742898        1.82672096653137       -0.23809113062518
H           -1.17626494642522        2.21033060573361       -2.31297783909686
H           -0.59084260230927        0.51575860377170       -2.27470206603510
H            2.86386703911537        3.65565050324958        4.96363991502944
H            1.23811108855418        4.24466414858116        5.38932426498280
H            1.89019270225396        2.45130221605141        6.97558347825888
H            2.20914295652699        1.35096173735304        5.62603057489652
H           -0.48972936586281        2.61346549683372        6.31874117307182
H           -0.06330372387942        0.90673597955661        6.53112096225283
H           -4.86654278577822       -3.23954801402985       -0.76893160548641
H           -3.36937823317012       -1.43626899391804       -1.43229105387792
H           -2.06292622527563       -0.90952406207045        2.61565789681757
