151
 energy: -221.328487417110 gnorm: 0.008103070129 xtb: 6.7.1 (edcfbbe)
C           -7.91241243102180       -4.64320421011123        3.55447504276497
N           -6.08640949383596       -6.33606580895599        4.86856382772457
O           -6.69274488894942       -6.10202586445436        1.99205455176462
C           -6.57442520325983       -5.01899165609462        2.91733602336684
N           -3.36636262802188       -4.48917697049218        1.73161128372860
O           -2.87118185968421        0.67518298500991        4.11515702179573
C           -7.42851487300580       -5.80638211449277        0.82570337049509
N           -0.72795002151742        3.31959523285693        3.05658670627229
O            0.93336956679445        0.33498353263016       -6.13021605735433
C           -5.59364359125463       -5.49294344424798        3.97067799430228
N            0.41905026068267        3.95496415088231        3.53669673200593
O            4.19516684279483        2.90147154064331       -1.96475578046244
C           -5.30139440027490       -6.81433206450555        5.81544388989968
N            2.65982600080594        3.89142199823518        0.66209785911775
O            1.86416676943929        5.86196302658799       -0.09981170095345
C           -3.96481251755410       -6.46425320960833        5.93894722447898
N            3.82930321876127        5.11411914904086       -2.15031773913978
O            0.32592855844289        2.41579857127802       -1.02574304539440
C           -3.44271042993763       -5.58359459928437        5.01090474893626
N            2.68195395431269        1.78171524977622       -6.14429064415798
O            2.55005871618926        4.58270227689840        3.20618147430173
C           -4.25375084840179       -5.08526273354916        3.98862449615785
N            5.50609332924849       -2.62003109128792       -7.70189473550998
O           -3.27280178331354        2.36805110422026        2.70258226870790
C           -3.63504568691431       -4.15080920949128        3.03908140996231
N           -0.73084555193153        0.11847821032430        0.18690053824079
C           -3.59917342314584       -5.77466824204550        1.12165728488067
C           -2.43371867956583       -6.73186813865264        1.36760902023414
C           -3.12644307603670       -2.90288046440124        3.32375752423071
C           -3.20960258660901       -2.17826688489335        4.62900521999562
C           -4.34703822626615       -1.13666309854833        4.73737495062802
C           -4.39287295328367       -0.60413264995362        6.17138057791890
C           -5.68966174512716       -1.77618424134356        4.38846958256906
C           -4.10865738427233        0.03244123542696        3.77613124516103
C           -2.57040344265104        1.80680406024891        3.51238978352889
C           -1.23709441513030        2.33994993948911        4.00680136641308
C            1.53068594842946        4.04143180320435        2.79168594351129
C            1.45021195626517        3.51081241451225        1.35376828983128
C            2.77454059227104        5.04399983839331        0.00021039299684
C            4.11657022213427        5.23171390409336       -0.71705758506492
C            4.79819968160302        6.53503849116420       -0.28721437634357
C            6.12546260935132        6.73617552436991       -1.01409799918992
C            5.03875784843909        6.47060010965085        1.22304534582888
C            3.90592049160831        3.87964115078531       -2.65943901090101
C            3.62687783509315        3.63131242457913       -4.15148122954233
C            2.13625625393176        3.33044777486347       -4.34440288055406
C            1.85970848377405        2.91667891401366       -5.79164483173184
C            2.14511839872473        0.55197610956878       -6.23325729623088
C            3.04900216573314       -0.53602241878952       -6.50426803759484
C            3.59087613237645       -1.58656045063175       -6.73874806010630
C            4.23889417276925       -2.86832921963591       -7.00777734784809
C            6.43773220019649       -1.79606164043362       -6.95640904830002
C            6.17661915607306       -3.79764839586660       -8.21483480017312
C            4.37630253536391       -3.60866752618505       -5.65854834665752
C            3.27122321597975       -3.64780357743314       -7.91596751005892
C            4.09693536217320        2.05588636151947       -6.07173732361006
C            4.48274809176119        2.46103740533483       -4.64725368926324
C            3.25502057346920        6.27334250699283       -2.80335440254626
C            1.24255394028168        2.00184996494130        1.23269871734992
C            1.14862410603339        1.56167007689609       -0.24213229186006
C            0.62707843611194        0.11628383570734       -0.31610332469176
C           -1.57866903818911        0.92841485498049       -0.67181595011755
C           -1.04487945616380        2.35894753222321       -0.66326958210139
C            0.33920555078327        4.57008283356790        4.85582973413991
C           -0.11668650800313        3.53745081464748        5.88271353480488
C           -1.43478344899074        2.92130156756330        5.41971815425332
C           -2.49382977292183       -2.44852325531336        2.12973373155478
C           -2.65194201751366       -3.47368697131330        1.16295168870117
C           -2.12248736695441       -3.34705400797472       -0.11764268749246
C           -1.46763974716964       -2.17835577409338       -0.44015931217943
C           -1.31594073655456       -1.14868693445889        0.50021151004708
C           -1.79882739685754       -1.29139752955760        1.78341966374381
F            3.97825165678081        4.74956321068394       -4.91960587414611
H           -7.75473962353452       -3.88874111185939        4.31854265908268
H           -8.59379820823807       -4.24329002321952        2.80983028816048
H           -8.34665175990125       -5.52543775593592        4.01425341307339
H           -6.15372407397558       -4.14935244773553        2.38594615032122
H           -8.48259320751564       -5.61421884619326        1.04684375285757
H           -7.00184928323352       -4.93893863981992        0.30606317445301
H           -7.35049305628503       -6.69089767865338        0.19561940335905
H           -5.77082621073196       -7.50342166948958        6.50478523947332
H           -3.35674040429725       -6.86958527189350        6.73137790854932
H           -2.40697489173694       -5.28098844554768        5.05599997076218
H           -4.52108650254649       -6.20141538203644        1.52495250482340
H           -3.73268626245063       -5.61621191898174        0.04829750275013
H           -2.32505421331475       -6.92627015550013        2.43124272351570
H           -2.61932256364247       -7.67381128298716        0.86014545072876
H           -1.50620898906649       -6.30428036991207        0.99348949727730
H           -3.36293335775107       -2.90976405457671        5.42355439044968
H           -2.26396481210014       -1.66606589487947        4.80922344832604
H           -4.63437666593009       -1.40643169766841        6.86313332659829
H           -3.43249782489855       -0.18002649504250        6.45003703735613
H           -5.15203699433245        0.16917157351677        6.26253551330198
H           -5.71704680728330       -2.05976405693242        3.33960462065842
H           -5.83792833832272       -2.66842781366460        4.99224588133033
H           -6.50580540922743       -1.08347908995514        4.58016159086425
H           -4.91551143858902        0.76945299979811        3.84403441194284
H           -4.04777520186803       -0.31363467763296        2.74064315548670
H           -0.51748238016117        1.51462934310643        4.05843728402237
H           -1.45712798544467        3.98998380948134        2.82526507715550
H            0.63325403246274        4.04933228772792        0.86076633565121
H            3.47049362128130        3.30317020084174        0.79112394613388
H            4.77425537125431        4.39208338698222       -0.47570952894874
H            4.12904744081570        7.37391428342698       -0.49362303943293
H            5.98539468161438        6.83196981868330       -2.08686892308792
H            6.60982720898647        7.63734826181266       -0.64771248035967
H            6.78499312614560        5.89014425497746       -0.83040175288173
H            4.12163478336816        6.24357824774469        1.76215896556029
H            5.76839099805410        5.69941958165702        1.45860947325706
H            5.41816506624003        7.42348735962637        1.57962279163061
H            1.86787699270114        2.52036543509582       -3.66290265483513
H            1.52912856452938        4.19656990910753       -4.08444184793206
H            2.10041031150401        3.74423895473997       -6.46587544055532
H            0.81265998475869        2.63407717138118       -5.91287319954311
H            6.96403436684776       -2.35042623755398       -6.16533381631444
H            7.18155270739392       -1.40682168166476       -7.65209647298028
H            5.90799238528492       -0.95925231166889       -6.50582457175999
H            5.50881371582020       -4.36635226443217       -8.85379807999636
H            7.01797946346609       -3.46142946247766       -8.81910538952249
H            6.56707857942443       -4.45444706949823       -7.42312448942166
H            4.81218891468213       -4.59127633138911       -5.82026618486282
H            5.00116490281426       -3.04805792226643       -4.96744433213826
H            3.39400825898692       -3.73056317152782       -5.21070613801436
H            3.30671101083904       -3.24570864341973       -8.92375107817209
H            3.52420900698613       -4.70333240224213       -7.93270799718249
H            2.25812746610553       -3.54321395530384       -7.53536903187456
H            4.65518801645096        1.16994160343113       -6.37566841266115
H            4.32430943334518        2.87675129851493       -6.75910811780555
H            5.53245561416514        2.75436277313518       -4.61777558066382
H            4.33645311778672        1.63066396358425       -3.95701304160323
H            2.59510488349207        5.98568032456480       -3.61477339449584
H            2.66399137952262        6.81883566082505       -2.06757857867755
H            4.03937083269819        6.91961948759404       -3.20224699599152
H            2.07838603084244        1.47826953123632        1.69471740773962
H            0.31874533864505        1.72157590123251        1.73212811723748
H            2.12986851037592        1.63573406785623       -0.72405803306541
H            1.23851644533008       -0.53462825082028        0.30985963974390
H            0.69463204554817       -0.23004750989127       -1.36410493504773
H           -1.59967950956176        0.54494975614740       -1.70905529664135
H           -2.59466822992052        0.92235257587635       -0.27143999582293
H           -1.19902863080025        2.78568844599368        0.33513831806413
H           -1.56214245319716        2.96984535402443       -1.40426301685910
H            1.32943265260849        4.96157318424827        5.08448389567028
H           -0.37603789295673        5.39874835740621        4.80913820130379
H           -0.24140436318331        4.01942131287868        6.85102006534154
H            0.64208910111823        2.75918123647174        5.97542543132204
H           -2.21452431305805        3.68642362514650        5.38819387554281
H           -1.75292437260430        2.12872195704746        6.09545695563562
H           -2.22170561748129       -4.13488675477646       -0.84822877770289
H           -1.06359118470121       -2.04913418083339       -1.43496622940095
H           -1.62693053516209       -0.49801165675901        2.49017083463791
