151
 energy: -221.316443601400 gnorm: 0.004630339720 xtb: 6.7.1 (edcfbbe)
C           -8.77262722042138       -3.55536693023808        6.71953430351290
N           -6.96419366817384       -5.68783776210145        7.07483558821937
O           -8.81849444568918       -5.23926191310433        4.90520646728679
C           -8.05748046369479       -4.21294152710084        5.53992346919975
N           -5.65043894026219       -4.13434873492586        2.95391132175566
O           -3.08163194278132        0.62745299597708        4.75677453615865
C          -10.15693255196803       -4.91518577546641        4.59299276124489
N           -1.07293729164626        2.88366666715023        2.89846726454258
O            7.56030061127439       -2.15754540446148       -6.92376704505961
C           -6.79555571758734       -4.90599073519868        6.01640803875985
N            0.25356589921205        3.32587824480204        2.96343635810726
O            5.16641013851567        0.60167931796325       -1.88903460320072
C           -5.93880803929284       -6.35918621813780        7.56353877771289
N            1.92129838063068        2.10160178139646       -0.04871087978138
O            1.86330653671570        4.18926602766456       -0.88617570149558
C           -4.66401472397925       -6.28828738821149        7.02355280287883
N            3.70530913560252        2.16114122433966       -2.59576236205038
O           -1.29464203143431        1.64810458677648       -1.14636821568457
C           -4.47706891076034       -5.47181800217814        5.92506584473276
N            5.81117101206677       -0.79944920881064       -6.41934501513084
O            2.36220551916769        3.28109381476506        2.20754674233813
C           -5.55318849075837       -4.75887318977296        5.38821908823593
N            9.52090899335126        2.13934974975405       -9.42782147305712
O           -3.75962685592225        2.45411058736560        3.64315741099379
C           -5.24880183302091       -3.88133282819087        4.24880089852855
N           -2.68425228694687       -0.20278270910083        0.42072498728543
C           -6.49908014710162       -5.21628158233903        2.51575074756422
C           -7.79574154111031       -4.72229539796594        1.87862682016935
C           -4.37295796385525       -2.81779610683919        4.27398598933717
C           -3.70951212413629       -2.19134885095034        5.45711350161811
C           -4.43035749018037       -0.94342677404559        6.01850958065828
C           -3.70668166282898       -0.49014434869420        7.28854039586550
C           -5.88275694074337       -1.28074395653652        6.34819627356045
C           -4.42973089587575        0.20420998257846        4.99982616134600
C           -2.88447056229411        1.75285612719118        4.10005568050485
C           -1.40703827510303        2.10202472538927        4.08637059449495
C            1.18106672694881        2.97529733731396        2.05975627209670
C            0.73226905714686        2.29049731726325        0.75818587263481
C            2.45598202843056        3.13053841871391       -0.71596665423117
C            3.84045420876980        2.85547145241341       -1.31710049968622
C            4.62941541952025        4.17326175793823       -1.42739267283967
C            5.89799001624636        3.99900011187767       -2.25772252319372
C            4.97911704085135        4.63468072093677       -0.01293184675268
C            4.44946835132773        1.06118080166601       -2.77819607304464
C            4.44346351357946        0.34873661716116       -4.14939300393202
C            5.19498544658603       -0.98208389871227       -4.05135484738345
C            5.26541830193718       -1.67938381579736       -5.41118193164592
C            6.93069090184772       -1.11182478203038       -7.09564006513439
C            7.35259725007834       -0.12121658715228       -8.05557818598966
C            7.78885455810556        0.64025702977641       -8.87991267858775
C            8.20023367567477        1.65320878171613       -9.85085099246404
C            9.99109780108349        3.33085783005471      -10.10335228729990
C           10.54183343832691        1.11058019568884       -9.42327432389947
C            8.16643545655749        1.01913843368016      -11.25674515546742
C            7.15779726376044        2.78071298183914       -9.77264906637802
C            5.08553607227803        0.43810210431101       -6.56902903065957
C            5.07654996654051        1.20751445885645       -5.24599096870219
C            2.82478460548398        2.78008872029345       -3.56843568266780
C           -0.03299711700229        0.97769211495511        0.86559676042551
C           -0.60740249326232        0.58260820745965       -0.50975590053606
C           -1.53933267110666       -0.62703899467892       -0.35742061395994
C           -3.42608782227821        0.82628388398000       -0.28461015582244
C           -2.49394051152642        2.02014795122361       -0.48625376485856
C            0.61458198662479        4.11629231113945        4.13308854826532
C            0.33907367229197        3.31470788378678        5.40206735184055
C           -1.11874422386579        2.86399705057800        5.39681110873759
C           -4.21345102124557       -2.39929430097311        2.92414063938486
C           -5.02207357894180       -3.24539351711745        2.12570651365360
C           -5.04478860546509       -3.10124951062348        0.74102638780742
C           -4.28742350142635       -2.09841790650362        0.17483264891562
C           -3.48184451261797       -1.25846998549754        0.95830158404698
C           -3.42410678428536       -1.42239408685067        2.32406262587040
F            3.11566922183026        0.05781316487797       -4.50397080132842
H           -8.09778023255188       -2.85532786172438        7.20107331644548
H           -9.65239546267581       -3.01310506064517        6.38531311717484
H           -9.05871722551050       -4.31982810521497        7.43574712402395
H           -7.80037614643119       -3.44297797628717        4.79176725240432
H          -10.78708948247949       -4.90279724277498        5.48586942051133
H          -10.22833848007062       -3.94808798502616        4.08374314364408
H          -10.49792769357846       -5.70279679811990        3.92439243063546
H           -6.15533032187773       -6.97364558541266        8.42669041833517
H           -3.84991468718815       -6.85210517645522        7.44910176381548
H           -3.50533518414419       -5.38097801285422        5.46204340173072
H           -5.94551759344945       -5.82674352776332        1.79302427521602
H           -6.73865864801996       -5.83196334380560        3.38541351169597
H           -8.35777443632895       -4.12150751635627        2.58490886678956
H           -7.59981651972154       -4.11887640207373        0.99805491039416
H           -8.40185734824600       -5.57622856835020        1.59367160440084
H           -3.64395691045835       -2.92412394426759        6.26331388164753
H           -2.69716515962900       -1.89901398247697        5.17381464711463
H           -2.65883877423019       -0.29441954732125        7.07855971433393
H           -4.15869409790646        0.41849324184669        7.67961785835264
H           -3.77009369361908       -1.26126232915030        8.05143546025659
H           -6.38218944870465       -0.42867118272970        6.80168222698770
H           -6.42226787967492       -1.55998795208288        5.44783188646229
H           -5.91293319137757       -2.11587229553862        7.04326067529040
H           -4.99699367459396        1.06088014677592        5.37819132520602
H           -4.87675474350225       -0.10964744079296        4.05215154964881
H           -0.81747445906628        1.18038396109102        4.06255260585848
H           -1.70823261375241        3.68104825892287        2.83146745407066
H            0.11626084490239        3.02731958295699        0.22613977083661
H            2.49211305442478        1.29553142917238        0.15942616467030
H            4.38982758436570        2.17676454661576       -0.65671951349009
H            3.97935594632088        4.92189911103151       -1.89060799917344
H            6.51899281579079        4.88508338995934       -2.16604279180081
H            6.46392934940805        3.14099091522685       -1.90144773401541
H            5.66880654156109        3.84897796844618       -3.30860896526940
H            5.41148213754827        5.63072156002209       -0.03556705999414
H            4.09145852405643        4.65707693723901        0.61638786726485
H            5.69662242575453        3.95214297794866        0.43772993071753
H            6.19483865618026       -0.77741249544583       -3.67089064313270
H            4.68909835066341       -1.63008083172147       -3.33572032541743
H            4.25809480008209       -1.98200849502744       -5.71775859056721
H            5.90418552742142       -2.56221220060304       -5.35156441782173
H           10.94820949283985        3.60494577354012       -9.66267656597723
H           10.14257362545173        3.19253271636491      -11.18421629139264
H            9.29798863031062        4.15085249609822       -9.94074517934421
H           10.15182206396442        0.20687828745567       -8.95693244583405
H           10.91024862361826        0.86155769436588      -10.43021671236579
H           11.38559161500180        1.46632206414623       -8.83149125429697
H            8.53170421177201        1.73009374838036      -11.99351325655488
H            8.77903361422576        0.12171546831610      -11.29274962206506
H            7.14521455352179        0.74781446043250      -11.50962524276675
H            7.26486476696769        3.46276221882492      -10.61078547635229
H            6.16027975628832        2.34937572966854       -9.80841360753906
H            7.27185754144242        3.32643873009522       -8.84062044220753
H            5.55207090648862        1.03924558413923       -7.34817305503512
H            4.05396089648286        0.20712950601845       -6.85536483862917
H            4.52358471222252        2.13140559484535       -5.38595546290102
H            6.09635973992994        1.44208881198482       -4.94026790506766
H            2.09362723865858        3.38252695738218       -3.03520918469107
H            3.37598792953472        3.44312238238681       -4.23617893783941
H            2.28892262421018        2.03238695151019       -4.14477854040989
H            0.62866026856475        0.18336688207010        1.20907976593488
H           -0.85963608292056        1.08174035616725        1.56347794959416
H            0.20682088453375        0.34724382928210       -1.20269947151180
H           -1.02855180242541       -1.43157657847953        0.17323241079882
H           -1.82427009155340       -0.98853046196315       -1.36227021338190
H           -3.79656726438493        0.47810501217492       -1.26462954199014
H           -4.27426605110486        1.12927197319593        0.33098952551819
H           -2.27043966010062        2.46963175508020        0.48714417682333
H           -2.95729349646919        2.76778568040254       -1.13294754550194
H            1.66888532484528        4.37398031966192        4.03864465292128
H            0.01516575197850        5.03284190492441        4.12351374353865
H            0.54278406670423        3.93127308573600        6.27610547275011
H            0.99787578337358        2.44566600579634        5.42820907410468
H           -1.77804816623095        3.73433112739777        5.45087807712222
H           -1.32870667250560        2.21689882552504        6.24751078731753
H           -5.62440054285866       -3.75737856765991        0.11082721489668
H           -4.30061428415831       -1.96230342768509       -0.89713833699311
H           -2.76256930572912       -0.79926580716928        2.90158304563767
