151
 energy: -221.323906988305 gnorm: 0.009941901399 xtb: 6.7.1 (edcfbbe)
C           -8.50762113262321       -4.54877275566922        5.17172843574160
N           -6.41003277429259       -6.25688541788247        5.79890283077844
O           -7.60189305560163       -5.50263092026386        3.09100905016476
C           -7.32083298489042       -4.67392815797165        4.21580867451707
N           -4.45712559364860       -4.19916020759511        2.29525445678779
O           -2.84088409445457        0.70634912163171        4.85316459437815
C           -8.55414251807219       -4.97356419781512        2.19336213663969
N           -0.30360916504229        2.88765002464055        3.61504043175653
O            2.85904103022836       -1.41872696317611       -7.29415914244786
C           -6.13397456408347       -5.30281831692119        4.92000739187190
N            1.06798262910196        3.08124027842857        3.81510309407100
O            3.07313904297179        1.63590269229676       -2.69293375698224
C           -5.42417685001509       -6.84178803032774        6.45392161554120
N            2.43081665126143        3.02298344489758        0.43111395028658
O            1.71201240261363        4.98811753421480       -0.41849895336040
C           -4.09218685994241       -6.48877513226585        6.29511442817893
N            3.02816195776031        3.88580614853063       -2.79794213078914
O           -0.47706074643457        2.42801901725775       -0.75436967535466
C           -3.79475549560517       -5.50179953243679        5.37338206841743
N            2.82833357455318        0.84214753855160       -7.10955946058236
O            3.13346007984862        3.27417229341372        2.96035942253972
C           -4.82208943265005       -4.89940918339949        4.64579141373015
N            8.12219397597836       -0.79704825504580       -7.52733328749797
O           -3.01719230924130        2.70041406185004        3.84618886734703
C           -4.44548299302434       -3.89791381909442        3.63890446408712
N           -1.77909496393609        0.25215084724254        0.42401428258567
C           -4.77217505594873       -5.48614094281693        1.72926451859658
C           -3.54229634133596       -6.39141827929727        1.68827173878012
C           -3.89035969257332       -2.65615037591536        3.84955154816665
C           -3.68442697164516       -1.99766606363932        5.17568506743155
C           -4.61868539479456       -0.80874906175472        5.50954693705247
C           -4.47065056623615       -0.48477637858559        6.99871225274378
C           -6.07235021053848       -1.15947813266311        5.19677513260988
C           -4.24382262464604        0.43701025527239        4.69611125202228
C           -2.35348721969529        1.82470943561457        4.35322282537533
C           -0.84218296755290        1.87719330380406        4.51855805104139
C            1.93660840383652        3.06916194690543        2.79324320817249
C            1.36688050478297        2.84533171449549        1.39035965086959
C            2.48886841813073        4.04154536752166       -0.43055042735706
C            3.61623539031064        3.91708285772176       -1.45948600673465
C            4.67187519980639        5.01509916719319       -1.25454621493251
C            5.70384333409551        4.99551091978188       -2.37797346084152
C            5.34918436373034        4.78352339197632        0.09703936221288
C            2.81565336612215        2.67050248946272       -3.31804016245789
C            2.43487660263737        2.50711795269270       -4.80112305889551
C            1.64684568277182        1.21031351810093       -5.00546239729596
C            1.52198162341504        0.86619035287815       -6.49043023190734
C            3.42628723825723       -0.33070534718783       -7.39671703401401
C            4.78469991088566       -0.23933392084380       -7.86228102248679
C            5.90558179865460       -0.28149649156093       -8.30549214170139
C            7.32171528118275       -0.30766322865073       -8.66476097348948
C            7.96972230692203       -0.01602691191441       -6.31286345310953
C            7.93684708798853       -2.20574360432063       -7.22979763890404
C            7.51008822133512       -1.22004074084882       -9.88738748971074
C            7.77855662291305        1.10924307524557       -9.05126763672724
C            3.51543340348928        2.10863459137897       -7.04776483785255
C            3.75575275185304        2.49676623961502       -5.58620776367823
C            2.48299105082960        5.11655843061066       -3.33926588241592
C            0.73463963777744        1.46814744451113        1.17473075577586
C            0.25394057217507        1.30428943150059       -0.28030807495492
C           -0.60973403030438        0.04243256173433       -0.40221788428856
C           -2.57212948941315        1.34710263249969       -0.10153467203557
C           -1.71313041806746        2.61222428164647       -0.07971842213216
C            1.50330942847421        3.38202161575500        5.17259832947857
C            1.02333525663719        2.28502340887787        6.11815096231952
C           -0.49217218599439        2.14518742636924        5.99474980991448
C           -3.50095854920500       -2.17436149424320        2.56474106377441
C           -3.86681991364555       -3.16870204263390        1.62085904713268
C           -3.58193891512315       -3.02289493575239        0.26737241751205
C           -2.91542588744957       -1.88836713470522       -0.14135608454168
C           -2.51676815120086       -0.91356386501999        0.78385172370563
C           -2.80226574025949       -1.05410512191499        2.12525778342961
F            1.64525282442785        3.54665931109824       -5.28955299372464
H           -8.85169799982001       -5.54373053820434        5.44126738696920
H           -8.19360656090784       -4.03098755356027        6.07373903133398
H           -9.31907071740771       -3.99049170849785        4.71107931395098
H           -7.02807894831038       -3.67675482399426        3.84729279676706
H           -8.33978169976426       -3.92099332386108        1.97345024338819
H           -8.46749425277497       -5.56207604742867        1.28119786233976
H           -9.57082694043607       -5.06219955096758        2.58753920820310
H           -5.72443554523602       -7.62158683401366        7.14145091041598
H           -3.31939968155061       -6.97531381831023        6.86503263600128
H           -2.77494982505659       -5.19328547928778        5.19631747998257
H           -5.55985163990292       -5.95018182786470        2.32686366952665
H           -5.15858821794932       -5.32915972741949        0.71905143288378
H           -3.20122185542958       -6.60816888277913        2.69803075359805
H           -3.78857138864533       -7.32771069639449        1.19694114730514
H           -2.73367455391001       -5.90829083936666        1.14474963261642
H           -3.82819882458573       -2.75289440957069        5.95109033824918
H           -2.65545046030851       -1.63790409065620        5.23613734836584
H           -4.76664908357572       -1.33818596488390        7.60345665999062
H           -3.43791926534609       -0.23670667130644        7.22829116035139
H           -5.09849925142249        0.36098667660792        7.26892187220761
H           -6.36772362070784       -2.04500790572392        5.75273927239889
H           -6.73235471740072       -0.34000762543643        5.47075983317957
H           -6.19414432359569       -1.35852806023474        4.13472024996194
H           -4.81277823919030        1.31267610312767        5.02824476481500
H           -4.44601402639514        0.28428256706419        3.63129076733431
H           -0.42929704736571        0.90546175671587        4.22539237792912
H           -0.81384473502889        3.76354475327148        3.74774994552777
H            0.63574738076690        3.63537802770634        1.18843321104156
H            3.13000649306953        2.29685417571581        0.40149738474642
H            4.10402900525800        2.94551188589424       -1.33818050939899
H            4.17571789160579        5.98951009705551       -1.22194567032190
H            6.14931008592064        4.00681341533813       -2.45756058378202
H            5.25059453115456        5.25016633322307       -3.33156645454095
H            6.49043773433861        5.71446043082333       -2.16828890205733
H            5.87624451511196        3.83200882882936        0.10121358819982
H            6.06752501393648        5.57630050538363        0.29129076751487
H            4.62131721245109        4.77350311950066        0.90660756428037
H            2.16299994167789        0.41203335821383       -4.47152231742982
H            0.65498877108464        1.33512287279402       -4.56565447641213
H            0.90807179988876        1.61491165556253       -6.99787089258770
H            1.07148816137780       -0.11939581612471       -6.61074327895032
H            8.10871887755136        1.04039616124072       -6.51972576898610
H            6.98951033991156       -0.16018050299619       -5.83172441197169
H            8.74608249091096       -0.32813014315391       -5.61439617213557
H            6.88940891349405       -2.46332441669210       -7.00820024456158
H            8.28759356938397       -2.81595634932208       -8.05722445486398
H            8.53853430318525       -2.44892466343196       -6.35588762643312
H            8.57525210087548       -1.37438267603029      -10.05618415002918
H            7.01655469748883       -2.18231563350242       -9.74709959626798
H            7.07468655160358       -0.74138223252407      -10.76436973993156
H            7.33265352856275        1.38820766972894      -10.00230895402391
H            7.47762628616932        1.84746174247747       -8.31300274466806
H            8.86019453898030        1.11823293256804       -9.14639768588130
H            4.46387717026800        2.03613761853671       -7.57988050465959
H            2.88615945043453        2.86472645334363       -7.52686606714129
H            4.21603495407608        3.48316285932285       -5.53405891818832
H            4.41897890420072        1.77113596779581       -5.11088791554901
H            1.40632391202596        5.03037580511331       -3.48278622545586
H            2.65256657690829        5.91214516565284       -2.62322933160573
H            2.95278156991144        5.37321612483937       -4.28809902574034
H            1.46888016525719        0.68932679415943        1.38186704252608
H           -0.11899486332311        1.34286346785787        1.83583623896372
H            1.11044654654609        1.23913819870777       -0.96174511468222
H           -0.06333627880550       -0.82738557635213       -0.03905137654137
H           -0.86089523728989       -0.10786496952318       -1.46598969441224
H           -2.91082431865011        1.14408645058028       -1.13306572852590
H           -3.44502692737931        1.49529222227349        0.53632702776331
H           -1.54201431513666        2.90764536596737        0.96158093869220
H           -2.20628556034213        3.42880525865995       -0.60831331447902
H            2.59022765766139        3.45418838968062        5.15186040181642
H            1.08523645829848        4.35048922377105        5.47039818161925
H            1.30198765791528        2.53841815173710        7.14043449982099
H            1.50355995545639        1.34276072389721        5.85003886263806
H           -0.98023813418060        3.06698358550196        6.31949052463400
H           -0.85779978673476        1.32332770010693        6.60771789347589
H           -3.85948584238309       -3.77953124213496       -0.45109249767947
H           -2.67587949045619       -1.75211201945515       -1.18528439560193
H           -2.43466330661250       -0.30392913839590        2.80288984783341
