151
 energy: -221.322300582694 gnorm: 0.007315628655 xtb: 6.7.1 (edcfbbe)
C           -8.41849694324988       -0.90185885050787        7.31626994007621
N           -7.81971346606437       -3.56456106281270        7.76981922571307
O           -9.31552514513950       -2.23530446963108        5.45709794679414
C           -8.12836961094123       -1.82197312909683        6.13106493251616
N           -6.82200172016287       -3.14809723144007        3.41039790017888
O           -1.05293223571792       -1.26496940918965        5.09507524732173
C           -9.98108858429346       -1.20932069019878        4.75097912666058
N            1.03346475945547        0.22080785573375        2.62022373109325
O            7.81299159594993       -0.41349808504585       -4.85677067063712
C           -7.44089681838549       -3.09454848818775        6.59084948712248
N            2.21236827935762       -0.06046636644515        1.91870775820974
O            3.96004845893308        3.64271525080267       -3.28737096760873
C           -7.25504870586782       -4.66114759240675        8.24371095880058
N            1.37373318587519        1.48600995575964       -1.13666657556268
O           -0.04797787318087        3.12663898054139       -0.52534213751423
C           -6.26298890180480       -5.35315940631395        7.56732797700661
N            1.91770924801403        2.71826218443932       -3.49331326935561
O           -1.35746935090374        0.49440857112048       -1.82399954235197
C           -5.86388791139329       -4.87288885537331        6.33360132894019
N            6.55008667085559        1.46159716819219       -4.65669902174849
O            3.33712619504354       -0.04357815613959       -0.02982973063494
C           -6.46065388890861       -3.72548875709904        5.81107080259904
N           11.32814914896778        1.53149579416069       -7.93735967486330
O           -0.45880612777701        0.88551024303674        4.81030953369355
C           -6.00482812498810       -3.20096800406685        4.51938850461962
N           -3.28002354957083       -0.93356734358409       -0.21051852999125
C           -8.01366728886161       -3.94212526898108        3.23973648774952
C           -7.66135644051413       -5.37200961825668        2.82948216195346
C           -4.76392851665081       -2.68700293239451        4.22418498851712
C           -3.58072590174576       -2.54524380645964        5.12279469798419
C           -3.42225146330725       -1.15641808889682        5.79246597589630
C           -4.26326679072427       -1.09684921599821        7.06791165956303
C           -3.83836694946719       -0.00957530811068        4.87202821497794
C           -1.94425687839366       -0.98141841011234        6.18640764454036
C           -0.37422227540075       -0.29010020351814        4.52746862178311
C            0.64213671397779       -0.84159372625614        3.53748121496954
C            2.29044681868097        0.11509516666987        0.59409420637764
C            1.00941485417114        0.50551682713459       -0.14244530880676
C            0.82908288945881        2.70083895419393       -1.26275510205298
C            1.44756506257060        3.54174236213948       -2.38597657143798
C            0.54632626757182        4.72601561712701       -2.79981091702462
C           -0.82755715258860        4.32455805056730       -3.32919734097225
C            1.27099398220077        5.61207105960349       -3.80950484755661
C            3.19156893124657        2.88447581760785       -3.88124283808678
C            3.75254205104388        2.06621198996909       -5.05687000254426
C            4.24523598508515        0.69563082417311       -4.57296594778912
C            5.56480811378131        0.82846869030141       -3.81123568043784
C            7.57108825146390        0.75608376689402       -5.17243239112563
C            8.39543156131116        1.43224207513439       -6.13764642808768
C            9.11277074571737        1.83414726545137       -7.01903352817612
C           10.06142422485024        2.27296045666558       -8.04219449753366
C           12.04630397868293        1.77801665232546       -6.69872501983822
C           11.18571466539793        0.10142660626728       -8.15352974418480
C            9.42621408542026        2.03032657849782       -9.42542818790412
C           10.31627863403226        3.78170119626384       -7.88892746996289
C            6.19966475321753        2.80681889312056       -5.03855122112793
C            4.87206294525528        2.81454045262689       -5.79714595748244
C            0.96504206827816        1.80692888959853       -4.09998267957092
C            0.45718910180030       -0.76343664339995       -0.81751252916357
C           -1.04395235666533       -0.71067988950921       -1.13089468706326
C           -1.87899228669986       -0.89216351315473        0.13999496508760
C           -3.67843199322795       -0.01112625603416       -1.25474343379694
C           -2.60096502972144        1.05564178629296       -1.44626966781685
C            3.36948834206194       -0.48653459052395        2.69204380118956
C            2.98966590492995       -1.72703178144785        3.49208990677812
C            1.80913885143021       -1.38116858032641        4.39443593209139
C           -4.80241028546893       -2.30135903434581        2.85031255004448
C           -6.09814554938541       -2.60622910401617        2.37747788182567
C           -6.45515697679066       -2.30802342793726        1.06735754655673
C           -5.51478579263679       -1.72715241286647        0.24677174626738
C           -4.20487801138134       -1.44407751917111        0.68817184361492
C           -3.85415321979060       -1.73758645065780        1.99873916092425
F            2.75482584316644        1.85488788047442       -6.02288393049198
H           -8.80453194280609        0.05382948748612        6.97547211362100
H           -9.14485252517621       -1.38132703626247        7.96458618805861
H           -7.50456796210776       -0.73252406573755        7.87603216384174
H           -7.47814660728360       -1.30547064522737        5.40313619075001
H           -9.28405232388982       -0.67119964030307        4.10012498663098
H          -10.73893560452120       -1.70585479138246        4.15293258951819
H          -10.46426239039947       -0.50121476151511        5.42718071534547
H           -7.61356661780711       -4.98475676190674        9.21096514951202
H           -5.81788426221061       -6.23896336121161        7.99148373144391
H           -5.09930249505109       -5.37857035322917        5.76179001317488
H           -8.57378773719233       -3.94396506754206        4.17676370851946
H           -8.63074261449169       -3.47233821994513        2.47103861358395
H           -8.56689151929593       -5.95452235630391        2.68739088068588
H           -7.09413984428865       -5.36760530506905        1.90190938681833
H           -7.05980555555106       -5.84521830602734        3.60218373383551
H           -3.62691095196147       -3.29486017573489        5.91482886167649
H           -2.68950348360173       -2.74109870050816        4.52374863998350
H           -3.94692635059546       -1.84982197255781        7.78443302002168
H           -4.18254148364499       -0.11972905900940        7.53751901530464
H           -5.30709276881434       -1.27578482245104        6.82662619128909
H           -3.23506009732108        0.01493357289571        3.96936571975817
H           -4.87938664491091       -0.11528454058468        4.58056735649019
H           -3.71720012267001        0.94327669148219        5.38367677396765
H           -1.67583618997352       -1.69745919352093        6.96734753662248
H           -1.75802017847650        0.03813753777748        6.53570842492672
H            0.20258795719555       -1.65878110018004        2.95692704108355
H            1.12972289703022        1.08918684133201        3.14956742821521
H            0.28951808418454        0.96014427199675        0.53884103467690
H            2.17906742536813        1.23583421296744       -1.69558016780382
H            2.35557398898550        3.98574312877908       -1.95037697878799
H            0.39144012396335        5.29058324661475       -1.87404419596737
H           -0.76123125357614        3.88476592344908       -4.31913342785254
H           -1.30283779921776        3.62047414231563       -2.65152319647395
H           -1.45543284680506        5.20986836106891       -3.39252371973716
H            0.69578266666492        6.51461057735935       -3.99476397220458
H            2.25541130231534        5.89524727385897       -3.44298848945641
H            1.39891001644591        5.08764092436465       -4.75512352828349
H            3.50574763937742        0.21658557147419       -3.93092581822199
H            4.39713015483680        0.06620927597906       -5.45327967960298
H            5.93811002475638       -0.15712117659964       -3.52815555517875
H            5.42561295763797        1.43704436540952       -2.91246985029087
H           12.96779870289411        1.19898796254526       -6.71969798439399
H           12.31308481517163        2.82815530761474       -6.62277546247682
H           11.47298882170610        1.48452859923443       -5.80633923785786
H           10.50853324725982       -0.37627133870527       -7.42872120827692
H           10.82383928424380       -0.09223136263862       -9.15923771366961
H           12.16837895474995       -0.35680259166347       -8.05755788298580
H           10.18724081882751        2.16937938192670      -10.18758038221785
H            9.01001980347082        1.03047653890029       -9.50236326087237
H            8.62252997775675        2.74344615371256       -9.58646141301358
H           11.14661721626244        4.06578892422038       -8.52826930668901
H            9.43025757040708        4.33342637969382       -8.18971761313239
H           10.54290600650348        4.04559472168379       -6.86016287227786
H            6.09798653002723        3.41005071697201       -4.13218326464100
H            6.98793983466815        3.22296122423773       -5.66650746366365
H            4.99848739502967        2.31616139866993       -6.76073714487761
H            4.56204540331826        3.84423757748539       -5.97322020760955
H            1.42027948749432        0.83713165041797       -4.29411525930975
H            0.13068418475586        1.66224966585669       -3.41804683627309
H            0.59275908432797        2.20007183470044       -5.04678897369392
H            1.01347610738809       -0.91349318845005       -1.74301505071666
H            0.63726558644895       -1.62343499499332       -0.17270394333485
H           -1.27787667593021       -1.55040083051699       -1.80464334625272
H           -1.64239118909148       -0.09193552178176        0.85927667636418
H           -1.61088025970593       -1.85384151512193        0.58639310558972
H           -3.81555834187835       -0.54651103281936       -2.20253255199368
H           -4.61727912129131        0.47745958502899       -0.98951432391738
H           -2.48193049110047        1.64700470649474       -0.52780099718695
H           -2.87816711134329        1.73111144029022       -2.25811726017513
H            4.17439951893990       -0.68532421884129        1.98593085818899
H            3.66990011539007        0.32561830384443        3.36126055062633
H            3.83770781186759       -2.05831754336014        4.08733805931629
H            2.71170782960776       -2.52701703331470        2.80537857559222
H            2.11153768292811       -0.61069443766341        5.11010763500914
H            1.46686100158093       -2.25501591568290        4.94854681601852
H           -7.44338934605883       -2.52152649632520        0.68994021433890
H           -5.78117023727207       -1.50441225447240       -0.77469550989375
H           -2.86667813594472       -1.52574797392328        2.37450579119366
