151
 energy: -221.320248835180 gnorm: 0.006521019564 xtb: 6.7.1 (edcfbbe)
C           -8.21921527317092       -5.05927300787209        3.06193010907465
N           -7.03983031766856       -5.48580188966857        5.59649546449047
O           -6.44531789469665       -6.77125626052522        3.03670773546172
C           -6.73397940177566       -5.38548051176272        3.21278915103343
N           -3.38548223910501       -4.68240636420524        3.03819608068088
O           -3.65366866431682        1.09177121149333        3.07702651286937
C           -6.77305875814544       -7.29811525165311        1.76943168547618
N           -0.79845735862184        3.17135565240396        2.50394852924690
O            1.03478021969758        1.06816308034977       -6.26306520493632
C           -6.26010366565257       -5.05595561672535        4.61369308077891
N            0.19480878867904        3.75144086455862        3.29985516056208
O            4.86283276183982        2.21561181083608       -1.72239058690562
C           -6.69347832577756       -5.25446580115357        6.84902648717545
N            3.12557962759847        2.98071994302770        1.31424750387494
O            2.68533682677900        5.11573332443108        0.77820660638383
C           -5.54807128743256       -4.55696143153244        7.20205816714409
N            4.53557244893620        4.41156436309759       -1.33224385529308
O            1.50000878034011        1.03383506166632       -0.51807133156580
C           -4.73161379375054       -4.10296508477458        6.18418952675841
N            2.89091185825718        2.32695161944429       -5.92257722406332
O            2.39418834269621        4.00475078257801        3.71986479994824
C           -5.07064313342156       -4.35935590844747        4.85380608720520
N            4.50056805614349       -0.97223548470866       -9.96566751969953
O           -2.99995178637652        2.19733206167034        1.23973924598737
C           -4.16180925601309       -3.85436952076948        3.81796663942046
N           -0.14668469590062       -0.84107637197244        0.74270289261188
C           -3.31450258579814       -6.11838185212134        3.15070607962439
C           -2.11129332982762       -6.55625543871329        3.98693049435424
C           -3.83959291829579       -2.53537728833660        3.58805421335398
C           -4.49012644097160       -1.35119542379143        4.22762389575501
C           -5.43863719517802       -0.52859837456597        3.32057394570139
C           -6.29914614270824        0.37099461501795        4.21258085702791
C           -6.33686878162473       -1.45292218535532        2.49920418481053
C           -4.64834657177631        0.35816811497527        2.34875011627682
C           -2.87275894663781        1.92094316360046        2.41190890241729
C           -1.79079629443332        2.48489682712350        3.31989304472540
C            1.49406078301291        3.54363216393350        3.02865102897537
C            1.77354454746306        2.72729990260847        1.76007281236094
C            3.45733379361146        4.15971834993308        0.78521689195289
C            4.82269369163414        4.19250991955332        0.08847933488646
C            5.78191132605817        5.22536756544902        0.69372184491029
C            7.12316683911540        5.19277458754562       -0.03894170808535
C            5.96992095324424        4.91247202153009        2.17725662485050
C            4.56048125238118        3.33832443342596       -2.13107457750810
C            4.15193841971821        3.47538460024707       -3.60733840022207
C            2.62938011272254        3.31585734722029       -3.70070055815987
C            2.18247562452308        3.33113399048321       -5.16335021817678
C            2.24663285986071        1.24692339492948       -6.40015411572646
C            3.05641634668304        0.31746100621441       -7.14659054792652
C            3.60220381423016       -0.51002064985878       -7.82994164098391
C            4.31489096650579       -1.51700128870447       -8.61449386228895
C            4.99299793160311       -1.91024405189007      -10.95266354136718
C            5.26698941225214        0.25727933819676      -10.00508445740675
C            5.62646593764297       -1.85820336190579       -7.87469056824115
C            3.40831184137153       -2.75734054288378       -8.65037685289792
C            4.32512252113402        2.48665253875627       -5.90572550464868
C            4.84624965735967        2.41680236597250       -4.46778109467986
C            4.11276889136100        5.74635326570757       -1.70835313031480
C            1.53872443375708        1.23154090683553        1.95191078567925
C            1.90126010915706        0.41238659851333        0.69512324728109
C            1.28957521890940       -0.99331412042579        0.80912426659216
C           -0.53208118589239       -0.32430060186349       -0.55489625051624
C            0.09463997439719        1.05950702088309       -0.71265803233675
C           -0.24605286893183        4.65460011468337        4.35335942422260
C           -1.26044250132950        3.95236924235293        5.25451597297565
C           -2.39939850781021        3.39465268041952        4.40198671127409
C           -2.77332555247626       -2.54659593692341        2.64269883929222
C           -2.51865044720017       -3.90521783332397        2.32264761116437
C           -1.51059964861066       -4.26020256577551        1.43205012036120
C           -0.73450028246919       -3.25897699949242        0.88844224736428
C           -0.94165050229094       -1.91612918862543        1.23399610462770
C           -1.95201889485052       -1.56115881192583        2.10285972093540
F            4.52870527756731        4.71996807613575       -4.12711562696650
H           -8.39217630897961       -4.03306352122363        3.37025024992239
H           -8.53863192789568       -5.17095325783992        2.02987943232700
H           -8.79638302167385       -5.71874241758402        3.70198073836575
H           -6.14933215756453       -4.80587820603038        2.47866597568907
H           -6.30892120610656       -8.28216866558544        1.73092707569816
H           -7.85377265205675       -7.40270982864116        1.64449215234938
H           -6.37213198470172       -6.66788344525636        0.96827530285779
H           -7.37110061958598       -5.64331907817230        7.59645436581810
H           -5.30388278373014       -4.37952361739899        8.23668548718087
H           -3.82297250300211       -3.56014711755038        6.40007755359855
H           -4.23756105582567       -6.47353601643090        3.61343450229331
H           -3.25104947631400       -6.54544002224120        2.14572113009629
H           -2.08507539158674       -5.99933771196413        4.92355773469146
H           -2.18980592820443       -7.61697292548730        4.21431705953586
H           -1.17989218309230       -6.37563316264874        3.45274716843512
H           -5.07953378911129       -1.70768519559750        5.07397097352470
H           -3.72042496418151       -0.67770235149183        4.60772505977059
H           -6.94689255046696        0.99984132758043        3.60530106106329
H           -6.92322151765447       -0.23151321616613        4.86805911994751
H           -5.66719705968469        1.01154694684492        4.82290020883522
H           -6.91716586377123       -2.08984289130331        3.16240858715974
H           -7.02035269275440       -0.87206178919386        1.88472920095175
H           -5.74033703299974       -2.08675470642179        1.84708633161561
H           -5.30859144149848        1.06670084881820        1.83934806293403
H           -4.14574762489975       -0.24407215730731        1.58610787993288
H           -1.29085092027860        1.64097387511521        3.81171453544172
H           -1.25623822022670        3.87136264595685        1.91807253786239
H            1.10114332058592        3.11651909982270        0.98672502280547
H            3.79061945850036        2.22860771072155        1.34790703103194
H            5.28273564692415        3.20184459602233        0.15000883790050
H            5.33542665575446        6.21866972293059        0.60652968552054
H            7.70876571652260        6.07379040919424        0.21234352384308
H            7.68584217850641        4.30666046885709        0.25004589031170
H            6.97984223697052        5.16771110776518       -1.11840418659664
H            6.65229127583978        5.63099996448605        2.62225323220259
H            5.02026981564340        4.95960435710099        2.70790354949106
H            6.38636602884028        3.91577468407933        2.30535048358468
H            2.37135558688531        2.36447609593073       -3.23111641775831
H            2.12113701273203        4.11064970192721       -3.15479091726785
H            2.39315754772952        4.31202201977463       -5.60152677969945
H            1.11416554385570        3.12024579364484       -5.23687532711737
H            6.02211887444284       -2.24894819038224      -10.75795002546491
H            4.33680515086940       -2.77344071433946      -11.01301314048067
H            4.98072816533684       -1.40815441711188      -11.91993102904187
H            4.90645471303050        0.93764926482494       -9.23641794353208
H            6.34729718436258        0.09863429337407       -9.86806686957521
H            5.11345840713141        0.72364375376018      -10.97796545077776
H            6.18578847637117       -2.60117507993016       -8.43635553797505
H            6.24163522273329       -0.97164326920324       -7.74513461734292
H            5.39580300978518       -2.26343183926303       -6.89321782036940
H            3.04646317088299       -2.96479939354328       -7.64622491484579
H            2.55348472139307       -2.57065511817350       -9.29418831805677
H            3.95363135569567       -3.62644340444549       -9.00594917761440
H            4.78368086968941        1.70522583247730       -6.51075328989982
H            4.57051136235338        3.46527619432209       -6.33074562187015
H            5.92199803507871        2.59407605749704       -4.45455605853317
H            4.64965254793370        1.43951584173520       -4.02810329756075
H            3.36519014154974        5.72349521074057       -2.49085644727992
H            3.66135741845958        6.21592572326360       -0.83957084454412
H            4.96060173066181        6.33762529512516       -2.05083735856105
H            2.13658734866369        0.86963309280221        2.78835869073677
H            0.48430494856726        1.07146649226412        2.16999564503232
H            2.98747385376850        0.32735050941920        0.58635542867069
H            1.55737311702852       -1.44026042100843        1.76714192724609
H            1.69095510560198       -1.61981915866613       -0.00717645475004
H           -0.19145911782916       -0.98307801266658       -1.37522016230063
H           -1.61799857681342       -0.23267426036607       -0.60275654022057
H           -0.38241724720301        1.74596322433712       -0.00311664450797
H           -0.04667131330628        1.43350864224093       -1.72860079544636
H            0.64209066031088        4.96403713927051        4.90513396930300
H           -0.70189342953032        5.53538742912339        3.88514698473504
H           -1.64433569247226        4.66191653515073        5.98607736059424
H           -0.76767519761667        3.13760332186061        5.78635364371678
H           -2.94545274966419        4.21117349327843        3.92348578756717
H           -3.09524167467999        2.82057513067127        5.01160811948717
H           -1.33089068378549       -5.29226235966089        1.17097627036870
H            0.05547043182238       -3.51058881770625        0.19604451850823
H           -2.05305028539337       -0.52341700166680        2.36851251937056
