151
 energy: -221.328130531128 gnorm: 0.005386491755 xtb: 6.7.1 (edcfbbe)
C           -8.46703830419610       -4.23970716961453        3.93681835311510
N           -6.74509708620220       -5.91140906389720        5.31919823924164
O           -7.12514014858476       -5.44138982454577        2.27085942999488
C           -7.07818872604169       -4.52295421806104        3.36474425956938
N           -3.92924152265626       -4.44489270580719        2.11537606870193
O           -2.74105802562978        0.71394086361808        4.44845624586032
C           -7.53227104312974       -4.87145806552684        1.04723997222678
N           -0.27680684744369        3.03295088571184        3.32877147290599
O            1.88037201379125       -1.80592567185124       -5.73237008330563
C           -6.16839193375357       -5.13922499251111        4.41055214252315
N            1.02615648521697        3.38470106432420        3.69438088151717
O            3.61774055670824        2.03159662228337       -2.15233961123303
C           -6.00400034926294       -6.47308578050726        6.25794744091726
N            2.75102619911954        3.23513312300788        0.49832359978351
O            1.97000486556491        5.25692612486628       -0.12644038286611
C           -4.63440929789176       -6.28543071462720        6.35754620270828
N            3.38113574607988        4.23963486243360       -2.51529489419537
O            0.17804730042959        2.10979564289667       -0.90872842802841
C           -4.02283471787180       -5.48068285909445        5.41313397870331
N            2.09496732029312        0.43345454019363       -6.03421093891793
O            3.18340277022019        3.61867143602405        3.10183691884659
C           -4.78771226991965       -4.89561187670263        4.40562340824714
N            6.91259254632768       -0.32569392983185       -7.97462623433544
O           -2.98559454170814        2.58890679188979        3.24410526636411
C           -4.11933510746668       -4.03898831733458        3.41753481313201
N           -1.06917955660217       -0.07935163509644        0.30197338678228
C           -4.13778013214248       -5.77958340471766        1.61100665908880
C           -2.88784700096446       -6.63796700535175        1.79626125686355
C           -3.55531616997640       -2.80064516624301        3.62410565834828
C           -3.48838437510229       -2.04747064726197        4.91469554983503
C           -4.47366497411990       -0.86763363460505        5.08783002899341
C           -4.42798261315746       -0.41532070129518        6.54994207759072
C           -5.89493745450925       -1.29230597292033        4.72262457957084
C           -4.09512296739820        0.31680358548632        4.18955440003477
C           -2.30846670819289        1.83690590806719        3.90944444026335
C           -0.85520027304633        2.08605933393437        4.27422550205959
C            2.03019540806190        3.32494799188273        2.80618631135479
C            1.64554300988799        2.93300091984505        1.37680919044804
C            2.81342532278588        4.36832001616164       -0.20183596002248
C            3.98279352752590        4.44803762010384       -1.19121578585574
C            4.77225086496562        5.74394123049855       -0.98512620645691
C            5.86334813596727        5.91933392917776       -2.03745048767865
C            5.39605715084725        5.68700129830576        0.41104184298687
C            3.16389570267144        2.95709794309741       -2.83384307827877
C            2.44251299759015        2.54515811816389       -4.12734468343124
C            1.56777282006648        1.31909092339776       -3.84301149908588
C            1.00237952782179        0.74788347529915       -5.14210918183182
C            2.51959005579145       -0.84076745320179       -6.15503191690634
C            3.78014770636207       -1.02273928392004       -6.82242106446582
C            4.84664896512939       -1.37132791488335       -7.26366008331367
C            6.18451861385696       -1.59531459043767       -7.81159915450724
C            6.32204321432817        0.55979110077216       -8.96172347564157
C            7.14010040992613        0.37791471522114       -6.72476061806705
C            6.94965507577974       -2.52238391937284       -6.85291899306488
C            6.04743548785561       -2.30784071924945       -9.16660329405382
C            2.86982378081026        1.58810506919594       -6.41987458885116
C            3.50644648010620        2.23988983004342       -5.18950710913916
C            2.75510726365240        5.36522822202105       -3.17926531410712
C            1.24320482765466        1.46564318597327        1.22777388106085
C            0.94455805841159        1.11373278555792       -0.24230433658739
C            0.22715656454985       -0.24193397576771       -0.31944432488046
C           -1.86840126463909        0.86964723231723       -0.45014765661464
C           -1.15012810482118        2.21617828816034       -0.41865583915908
C            1.22931833217991        3.88918166320240        5.04542753270444
C            0.67800734584145        2.89223895632752        6.06185662519093
C           -0.78105371420299        2.58986834842335        5.72854440441689
C           -2.96652742890257       -2.42363805881894        2.38148477433506
C           -3.21284683539907       -3.47890242895504        1.46718792750724
C           -2.74035683284817       -3.42823441862613        0.15977006631499
C           -2.03084684114286       -2.31474780272643       -0.23480086337996
C           -1.77177792471276       -1.26824831876010        0.66169012022250
C           -2.22112510990658       -1.32541577571223        1.96334502550099
F            1.59505738495913        3.53045106686655       -4.63481932235045
H           -8.92214809766593       -5.17680197675386        4.24298163635923
H           -8.38002672815786       -3.58700588708907        4.80001908017414
H           -9.09437482295987       -3.75627174098041        3.19287526982446
H           -6.61809371632061       -3.58648888146504        3.00938708395631
H           -6.88964272095863       -4.02610509045983        0.77763849846536
H           -7.43264574270545       -5.65688870209917        0.30451117494489
H           -8.56938919149841       -4.53582655419918        1.08222751712655
H           -6.54141939820465       -7.09307626123003        6.96175179335868
H           -4.06687357835746       -6.75396700512925        7.14483621973939
H           -2.95727227571286       -5.30349998202597        5.44109691562821
H           -4.98623447964330       -6.22461402189842        2.13425277687821
H           -4.38907199190602       -5.70745143664882        0.55035297777724
H           -3.05101991695408       -7.62591751351290        1.37623358477990
H           -2.03763926293665       -6.17851233278439        1.29672240246164
H           -2.65461019348684       -6.74180872002068        2.85324509647232
H           -3.68033128598466       -2.75036165468802        5.72728064602348
H           -2.47669442028702       -1.65588905325615        5.03253857331095
H           -3.41680583132667       -0.12662789358945        6.82506135048998
H           -5.08634146054633        0.43587331378300        6.70503113381075
H           -4.74972599096701       -1.22150192813103        7.20369244966457
H           -6.60187074650913       -0.49905431177807        4.95189401172321
H           -5.96228812032577       -1.51411346153706        3.66071815553471
H           -6.17385593173753       -2.18118757538449        5.28106821055267
H           -4.75180232563594        1.17244128837006        4.37996848301401
H           -4.18062537720775        0.05046856763524        3.13205758032828
H           -0.30328699071732        1.14315143511418        4.19219123361670
H           -0.87447832358235        3.85892818226650        3.26781838673684
H            0.82244714258304        3.58671771136549        1.06704238764246
H            3.48158524914307        2.54568220723241        0.40928290442624
H            4.65541498804176        3.59985449407703       -1.03403242259333
H            4.07559214643813        6.58782851250314       -1.00068689367569
H            5.45060993423180        6.00328963663268       -3.03834142471403
H            6.43672564626351        6.81725650209528       -1.82209917651212
H            6.53768159423356        5.06573717467574       -2.01329969909905
H            6.16689597619187        4.92206269649781        0.45522236201473
H            5.84391107960833        6.64526200678780        0.65831776901011
H            4.64481872848623        5.45787006826722        1.16438895283103
H            2.18678651213011        0.57065522659888       -3.34559170824261
H            0.76634022874322        1.61329230339355       -3.16270504323323
H            0.34564050478863        1.47719845446801       -5.62331633399653
H            0.44807740498584       -0.17080608131834       -4.94443503467601
H            6.37570034577764        0.10637260356713       -9.94758880605358
H            5.27320566956875        0.81271085161485       -8.74218703344456
H            6.90075349747037        1.48121902441300       -8.98478270134183
H            7.77779582232011       -0.21452633050358       -6.07453288562833
H            7.66043831667657        1.30774453692535       -6.94510057443521
H            6.20913781223063        0.61749639891866       -6.18922001457934
H            7.98970351361041       -2.57292802583104       -7.16293218656576
H            6.89363717372528       -2.17133041985918       -5.82607156969526
H            6.51662727542744       -3.51888771072338       -6.88653330228693
H            5.32409165543029       -1.81172694503377       -9.80639362740516
H            7.01571442437591       -2.32757897585644       -9.65686598685265
H            5.70756062655266       -3.32727183476202       -9.00703115577543
H            3.64304615295859        1.28741361133692       -7.12801491596896
H            2.19583753547445        2.30224255021024       -6.90282993214125
H            4.00779636293596        3.16406901478512       -5.47761358088296
H            4.23593641907766        1.56443719678224       -4.74068214935190
H            3.15348095530504        6.28378857471143       -2.76482654405224
H            2.96319704171871        5.34043625786328       -4.24701630088613
H            1.67511175301037        5.36255908806586       -3.01918287884455
H            2.05326844904197        0.82442836694074        1.57466041563760
H            0.35180725544856        1.27398742674953        1.82058559833598
H            1.87731584630736        1.07643798095786       -0.81440753826067
H            0.79456321933987       -0.99546104836766        0.22819364102886
H            0.15962700222525       -0.54874961552461       -1.37921647718707
H           -2.00871318350960        0.54624547774619       -1.49808690185141
H           -2.84634859747652        0.96886716637999        0.02306635633048
H           -1.15404736496407        2.59659582530987        0.60898291821708
H           -1.64135292496005        2.93908607672292       -1.07166649474559
H            2.30050055941942        4.04534044969930        5.16991485099197
H            0.71245958442650        4.85123495142795        5.13956771365344
H            0.76078738298093        3.31290787826296        7.06285059969332
H            1.26312852552957        1.97235721757397        6.02113053576530
H           -1.38213068670152        3.49802684836479        5.82206239739590
H           -1.18548966959731        1.83291882741037        6.39836781562533
H           -2.92123855118671       -4.23330934428509       -0.53621903233185
H           -1.66066559323340       -2.24730901270281       -1.24750602646765
H           -1.96857545591267       -0.52157335199679        2.63218236717520
