151
 energy: -221.321404117165 gnorm: 0.006445149532 xtb: 6.7.1 (edcfbbe)
C           -7.69941092175955       -4.58121436441219        4.56133298820314
N           -5.86622637878517       -6.69781686270969        4.67840126125778
O           -7.15769437173157       -5.26530576501987        2.27312207093160
C           -6.62563570719288       -4.72902494315833        3.48553068392152
N           -4.00610006010374       -4.30004246958957        1.41387576823192
O           -2.31651156482446        0.30307715085741        4.38952625661544
C           -7.73606426648825       -4.29518391619138        1.43041923986956
N           -0.66680889016223        3.24184626152656        3.28945660392032
O            1.20326227918182        0.71711615444346       -7.42409683092002
C           -5.51228802532052       -5.64859578063085        3.95162247357919
N            0.57949452271724        3.84775404345522        3.48039056982050
O            3.60224902077160        2.61170778195345       -2.70030174644954
C           -4.93309714858515       -7.52499995331648        5.11561777463154
N            2.28420772194209        3.77022244785159        0.24392390085559
O            1.71257840238189        5.76087064985231       -0.66030826855421
C           -3.58053444543769       -7.33668578782568        4.87942052805793
N            3.67030422948426        4.85841776884555       -2.68434125126274
O           -0.54599406928523        2.81055025502135       -1.15388295871717
C           -3.19950470841920       -6.24066986552698        4.12628804112911
N            3.06480703461429        1.98746455947846       -7.13579096303976
O            2.60588824407922        4.43316739746816        2.73352226043066
C           -4.17527720801522       -5.37861536791891        3.62831777930406
N            5.73509674325930       -2.06807226288064       -5.54733263547045
O           -3.22475572396510        2.28252424997492        3.85104950737317
C           -3.77147204194601       -4.25599681646658        2.77153273773184
N           -1.64762946528696        0.49905403947995       -0.00538696461761
C           -4.47439851408527       -5.44915907629596        0.67919700041032
C           -3.32111941762918       -6.37800494763578        0.30342092951832
C           -3.10249205739967       -3.10149002785482        3.10629786249470
C           -2.62877863810924       -2.67858100231768        4.46065834765603
C           -3.51065243039466       -1.65221099838898        5.21007143185913
C           -2.89409359205413       -1.39909990133742        6.58813893794300
C           -4.93464297557248       -2.17829323122157        5.37762954510998
C           -3.60241105490715       -0.32705111275275        4.44073990332678
C           -2.26315466095477        1.58654236638907        4.09330352844525
C           -0.83731272311887        2.09960568282239        4.18370574211808
C            1.49298966184016        3.96548843156011        2.50666279147013
C            1.11490548713178        3.56809129308164        1.07144555000136
C            2.51035207542160        4.84125662234162       -0.52004071924853
C            3.86631121157089        4.80414856997848       -1.23843341433008
C            4.80880640441652        5.89850959369908       -0.70964266486534
C            6.15448898997519        5.84631645791391       -1.44315919000373
C            5.01058604583277        5.67991572856768        0.78917865360390
C            3.63100608844524        3.68165104684999       -3.31628418243036
C            3.68700949180004        3.61717557709784       -4.85331379669170
C            2.27261332094156        3.53104271822213       -5.43864637451358
C            2.31246825808971        3.20567277417736       -6.93559531598132
C            2.41392974905475        0.80764844002440       -7.21098790651843
C            3.23469988024918       -0.35706707537151       -7.00826328675611
C            3.83207581445693       -1.36366843310958       -6.72612027869901
C            4.60689083051107       -2.54634339283815       -6.35972531437618
C            6.78792626498316       -3.03182742556871       -5.30475196126143
C            5.33194575951162       -1.43317024226860       -4.30771698534902
C            3.66596923108256       -3.52849114383929       -5.63185560508332
C            5.10291251279762       -3.18258557728796       -7.66638222627255
C            4.44870387699562        2.11473101229406       -6.74324801553603
C            4.54069568513651        2.40503598667863       -5.24626483998095
C            3.34926046100932        6.14824440774403       -3.25851163273671
C            0.63578955811356        2.12650247671034        0.89986879677249
C            0.29296511172568        1.82452399738820       -0.57072029169905
C           -0.36025225149351        0.43859636760536       -0.66726396430188
C           -2.51252780063753        1.44910281949794       -0.68253832584809
C           -1.85524226363566        2.82589838710390       -0.60542855046812
C            0.88315822606291        4.28513445026335        4.83820061705574
C            0.80190069811799        3.09522986225408        5.78965482162677
C           -0.57493744762959        2.44900247137702        5.66467063585377
C           -2.89122442193475       -2.39807028247254        1.88223684255398
C           -3.47007685570543       -3.17817747193076        0.84975214450343
C           -3.44264256800433       -2.75467187184600       -0.47469327687478
C           -2.84322030749140       -1.54751730923839       -0.75766575604462
C           -2.25255162793704       -0.77130548187884        0.25041551590307
C           -2.25606477301590       -1.20029695904196        1.56092138768002
F            4.32368146822388        4.74962532003263       -5.37455933954250
H           -8.46837430033417       -3.88537005439058        4.23728415417225
H           -8.14671251807320       -5.55182099300043        4.75136324085474
H           -7.25054056971115       -4.20904670160961        5.47649743728652
H           -6.18237327678850       -3.74892614507181        3.25455169469032
H           -8.10353193485979       -4.83169728526733        0.55881196622613
H           -8.56974111296074       -3.77843136704376        1.91598724229561
H           -6.98967447929074       -3.55253851828789        1.12134628642006
H           -5.29185827884335       -8.37011364567866        5.68614883135929
H           -2.84914022033290       -8.02910001718841        5.26397901621715
H           -2.16083156627145       -6.04963066803869        3.90949991114739
H           -5.20694609549039       -5.98454959632340        1.28678685123639
H           -4.97555620157511       -5.09306124609668       -0.22357993219706
H           -2.84728852508838       -6.77434139538288        1.19833766911355
H           -3.69547598724099       -7.20757745629120       -0.28884926791301
H           -2.57511146385403       -5.83868759772397       -0.27614122046628
H           -2.54876049255216       -3.56460105634003        5.09462891256095
H           -1.63342069224335       -2.24321302380932        4.35135410309678
H           -3.42618176151581       -0.60099403983666        7.10069644300459
H           -2.95473447092957       -2.29752527233787        7.19587490930831
H           -1.85035527704395       -1.11304237205928        6.49232830040797
H           -5.50018958366203       -1.54127088440822        6.05268670466436
H           -5.44422065242137       -2.19554228814140        4.41937034982643
H           -4.91915748747761       -3.18715969045263        5.78163702754667
H           -4.30452185257995        0.35670457576588        4.92870539650396
H           -3.94590902620051       -0.49651982184206        3.41623406040758
H           -0.14650241917635        1.31161332264561        3.86925650641406
H           -1.41795805940404        3.91348583742739        3.46137575004711
H            0.35199475292674        4.27023265194359        0.71649871288171
H            3.01458550281584        3.08081819995307        0.34155954017392
H            4.33057053633637        3.83167671591602       -1.04333250825117
H            4.33429901399873        6.87235004549039       -0.85194587695958
H            6.34688190435933        4.84372797142428       -1.82071998151740
H            6.18604270386212        6.53463342815119       -2.28299909089778
H            6.96101561616076        6.10927387661723       -0.76305989090422
H            5.65623699132705        6.45314579756396        1.19436112676121
H            4.06447079325866        5.71059529211921        1.32613298135449
H            5.47014237070099        4.71176512798675        0.97655489033662
H            1.73825978296223        2.74389588976616       -4.90327457529677
H            1.74473502044662        4.47166044986698       -5.27888174550977
H            2.79780796921015        4.01548568935515       -7.48521004080193
H            1.30121017518593        3.05443498504239       -7.31563510930145
H            7.57215605649405       -2.52784641512668       -4.74123254994685
H            6.45711423523942       -3.90385231360380       -4.72030779891866
H            7.21231724884217       -3.37061986996741       -6.24509074423707
H            5.10095712335623       -2.15389632534053       -3.50955035049027
H            6.14612320374383       -0.79445426379214       -3.96504016679113
H            4.45576066927654       -0.81025793810600       -4.47650427489086
H            3.19072623675869       -3.04807843221310       -4.77985644992923
H            2.89006643390240       -3.86301619899856       -6.31344301587883
H            4.22663781151225       -4.39306689966154       -5.28603648614361
H            4.27218883608543       -3.26333229524759       -8.36328754694356
H            5.87342301282529       -2.56083327142427       -8.11353743435069
H            5.49562642670463       -4.17869165552216       -7.48166766869678
H            4.98677166262144        1.19666444900479       -6.97746715482891
H            4.88275622160172        2.94500571650665       -7.30749920423163
H            5.57597479463351        2.60256479232288       -4.96743300934776
H            4.18593259926760        1.54960415115948       -4.67206149896467
H            2.67354552701664        6.65796626599690       -2.57225419874342
H            4.25034335848427        6.74253403916007       -3.40437341649332
H            2.84716935577929        6.03561760909089       -4.21238108837859
H            1.42308210377580        1.44163972401496        1.21429489737437
H           -0.25306677428007        1.95535321458718        1.50103254348905
H            1.19917511300086        1.85451624057002       -1.18711685981761
H            0.26393766243775       -0.30081561524769       -0.16344889770560
H           -0.45035422795075        0.15636026956392       -1.73279110284399
H           -2.67332656825446        1.18702052889444       -1.74300545229022
H           -3.47524514894853        1.47393044303637       -0.16999995752568
H           -1.83107069222950        3.15921878490913        0.43859875978653
H           -2.40709299805912        3.55241383912135       -1.20392619114177
H            1.88139840573020        4.72146431706372        4.82301669661093
H            0.15562746091780        5.05224696735567        5.12303529867195
H            0.97047230329303        3.43324355646989        6.81090789415236
H            1.57674437976653        2.37265489745870        5.53026412038904
H           -1.34570563718942        3.14312440385164        6.00918912634645
H           -0.63388035225222        1.54068164538195        6.26264675557224
H           -3.87858110160521       -3.34391835814260       -1.26685741935700
H           -2.81612301170629       -1.19221734727785       -1.77798412435390
H           -1.76689554108315       -0.60082587799135        2.30968059720767
