151
 energy: -221.314884343353 gnorm: 0.009996520513 xtb: 6.7.1 (edcfbbe)
C           -7.69530116551180       -4.58784046741202        6.15718585345764
N           -6.13916315450908       -6.65494861341834        5.06404103441226
O           -8.35477223020914       -5.08831383458965        3.83762087080329
C           -7.31629948419738       -4.58757124023440        4.67641453965791
N           -5.75958844045496       -3.52727130660840        1.78352216379977
O           -1.84601100919220       -0.10384687141425        4.47076494640342
C           -9.50575929415037       -4.27304909653761        3.76737353508562
N            0.26888899684847        2.59899864821546        3.35520653458135
O            5.04825338900599       -1.96952927115562       -3.45725992159076
C           -6.12138792538366       -5.48941653404464        4.43425528359004
N            1.62039277526206        2.70602466906796        2.99313124082068
O            4.77017587886818        3.77209363236358       -2.70139071528021
C           -5.13520560110182       -7.49842493899673        4.90122837635901
N            1.97763453733903        3.99834209733309       -0.37069791335136
O            0.33569975453009        5.15185229672832       -1.39673969629265
C           -4.03310416976741       -7.21914743925573        4.10903235892555
N            2.66826254916365        4.28079801810719       -3.32175154980581
O           -1.54328506514707        3.27990025784715        0.93474253580721
C           -4.00421417988571       -6.00350829780194        3.45063103363308
N            5.50659352856833        0.25207786914755       -3.41870317141546
O            3.34326019261664        3.17333030230279        1.63534810863937
C           -5.06782571012925       -5.11105271793031        3.59185780031550
N            7.98970529367855       -1.14905606408100       -8.02424948707821
O           -2.32898838683816        2.04466312503295        4.07525511022414
C           -4.97404943100993       -3.83339001024413        2.87350296935883
N           -3.26138901389862        1.15970133720478        0.13233489612070
C           -6.72830401447429       -4.40606699996282        1.17694753167656
C           -6.07952399311719       -5.33890148763261        0.15560611744921
C           -4.02562741776854       -2.85431158391966        3.07081675652751
C           -3.00984258893603       -2.79037466263069        4.16671240468525
C           -3.34256375755796       -1.81983714844705        5.32703105304691
C           -2.38301160988219       -2.09642344308725        6.48794072155948
C           -4.78394385558954       -2.02138133380082        5.79439139504514
C           -3.19242658232239       -0.35460910422291        4.89998865021802
C           -1.53566554974839        1.13245227494141        4.11234536930962
C           -0.06040605549752        1.23579757733752        3.75911205306294
C            2.12343764527768        3.07576886357139        1.81551009149038
C            1.16515641086609        3.40434565430199        0.66674012551980
C            1.51876049920105        4.84649496432530       -1.29599803573444
C            2.60041018033757        5.30794585309681       -2.28127568432259
C            2.34468559415981        6.71514674274325       -2.84081152015523
C            3.45135722636120        7.09357562978387       -3.82284365504011
C            2.29085608794915        7.71330451080362       -1.68467232876878
C            3.79874805925436        3.57265875804522       -3.43178823420190
C            3.87156032335753        2.39806865389885       -4.41709892558388
C            3.28349401637958        1.15932569530105       -3.72499493592393
C            4.28462254997550        0.57669825666570       -2.72203312015744
C            5.71609679531615       -1.00828290405372       -3.84718895647674
C            6.76208052781024       -1.19836241485930       -4.81825376419984
C            7.49619479982833       -1.58511424277455       -5.69362736965904
C            8.33662852977407       -1.94838590656696       -6.83589872672482
C            6.79362400668167       -1.58023296840782       -8.72689345974968
C            7.90519477264021        0.27805306080189       -7.76570171595808
C            9.81982788863712       -1.73127018354118       -6.49135950171336
C            8.13598748024174       -3.45169489170707       -7.08731875993436
C            6.18625054721323        1.41403922253505       -3.93614948744705
C            5.29142784008811        2.14151680637638       -4.93983787600351
C            1.47692089981651        4.13969050646975       -4.13701883452485
C            0.43405305128251        2.13754088369965        0.16866668508709
C           -1.07424690698002        2.35505571210057       -0.03495531346056
C           -1.80887897652430        1.01825551813487        0.11883345961934
C           -3.71501261849107        2.24041382379096        1.00948813319810
C           -2.92274336388375        3.51514619611816        0.75077396304518
C            2.49872824172162        2.43961951725810        4.12450288756457
C            2.25992283178437        1.02292777098663        4.63514713690059
C            0.78509364730724        0.87188328490208        4.98930408056053
C           -4.20942146332997       -1.91234725464420        2.01897438908541
C           -5.29739015373014       -2.36434837739324        1.23414431177318
C           -5.71081652904054       -1.64312211722552        0.11669601363208
C           -5.02105101233915       -0.49614144332725       -0.21436250600538
C           -3.91444070654941       -0.06115335624475        0.52859209569308
C           -3.51368593559406       -0.76837712032648        1.64247168585176
F            3.11104689587261        2.66144831933733       -5.57478773236790
H           -8.01896250304023       -5.58687873403936        6.44119358273633
H           -6.82664894346559       -4.31682723292855        6.75091275403978
H           -8.48931834951416       -3.87155594227878        6.35235370514206
H           -7.06561473648520       -3.56242642259167        4.35428306324180
H          -10.13536058419376       -4.72009153361748        2.99880663354282
H          -10.04796388702912       -4.25703807447250        4.71726167973709
H           -9.23807035358629       -3.24795356667520        3.48064079188587
H           -5.22417327094586       -8.43116304373271        5.44097381435400
H           -3.22679431615905       -7.92796777755724        4.01007801913017
H           -3.17110864386026       -5.73604307451785        2.81657542216254
H           -7.21184585804492       -4.99520476996726        1.95954009162395
H           -7.48817173513162       -3.78882767152879        0.69065802765306
H           -5.55600430417285       -4.76512445523848       -0.60595625956875
H           -5.36761162797264       -5.99840116103894        0.64681908450848
H           -6.84306872140771       -5.94633141864439       -0.32168966119543
H           -2.90513276067041       -3.78811628305997        4.59695174981544
H           -2.04531155378696       -2.49809903963744        3.74606135968057
H           -2.57671751556130       -1.41076038964514        7.30935057884860
H           -2.51200603499115       -3.11283274791042        6.85019557621891
H           -1.35291725885384       -1.96887941140573        6.16633336769989
H           -4.93376464950549       -3.05803873429629        6.08236825171077
H           -5.00207720299526       -1.38536491342281        6.64797533628584
H           -5.48088631348686       -1.77960591465046        4.99627123893790
H           -3.41392922063381        0.31528425702327        5.73775945775343
H           -3.88204763882303       -0.11019338435798        4.08614396509120
H            0.14276789135613        0.49331502976508        2.96519300807367
H           -0.35927982869765        2.94973473564522        2.63602376389178
H            0.42105081010383        4.14280512466641        0.98547368993799
H            2.97221961037477        3.82210290430838       -0.24737685872079
H            3.57179839895897        5.30202814838620       -1.77633197626375
H            1.37738845140179        6.72889017399717       -3.35151469643869
H            4.41715401476845        7.08182981468181       -3.31966825959581
H            3.49495059570798        6.39697668453189       -4.65783352873783
H            3.27640165172836        8.09069761571498       -4.21625369651889
H            2.15059455346534        8.71911441819473       -2.07051061445320
H            1.46091710755336        7.48227289400978       -1.01977813725903
H            3.21599215449398        7.68580722996458       -1.11122373972587
H            2.35416863255178        1.41449104376762       -3.21509569931046
H            3.06542401946703        0.41098749693257       -4.49031210891533
H            3.88675173664212       -0.33828283167305       -2.27993077976813
H            4.50814408829553        1.30267798157320       -1.93577836824848
H            6.63197732062032       -0.89662556445122       -9.55932244838923
H            6.93288785639367       -2.57764898806580       -9.13427607883858
H            5.89443536020060       -1.56894393792452       -8.09103940966296
H            8.76436050019960        0.61897278165804       -7.19441734303522
H            7.90394323840039        0.79607882115588       -8.72465664546080
H            6.99174263809355        0.55306253037030       -7.21633645560016
H           10.06167870591700       -0.67655786992244       -6.36624506866714
H           10.05876709848699       -2.25232382231146       -5.56490373322035
H           10.42745063224461       -2.13525098777690       -7.30103284818953
H            8.63638992530115       -3.73956390760715       -8.00771431346192
H            8.56880365868859       -4.00960450926380       -6.26108316681474
H            7.08148664043855       -3.70895042439005       -7.14775235311297
H            6.41017988780562        2.08091181843510       -3.09966831471233
H            7.11446525409561        1.10854518908330       -4.42010339201981
H            5.18060201657454        1.52667688213341       -5.83665588189696
H            5.74744589388513        3.08977933993511       -5.22209170538751
H            1.26472955012245        3.09984250390956       -4.36294491433745
H            0.63369375436413        4.54999905893648       -3.58579824038940
H            1.58572014142822        4.68461117350897       -5.07523366356469
H            0.87831111554984        1.81789868243425       -0.77320799743287
H            0.58520007956484        1.33077268168898        0.88692144524753
H           -1.26519794940817        2.78506456713180       -1.02983233065838
H           -1.43715951019478        0.56206974522956        1.04980992063842
H           -1.55088254660615        0.35910665223028       -0.71487135256698
H           -4.77429048691893        2.40920520295090        0.80840625917217
H           -3.59665883284879        1.98013743660379        2.07295797419528
H           -3.19766727165138        4.28304661806887        1.47429851288737
H           -3.09650210624221        3.88119919995894       -0.26995292548207
H            3.52336567030516        2.58187654254454        3.78305552307363
H            2.26265435027093        3.16413658068502        4.90715560340894
H            2.88108916651807        0.84311802919795        5.51046222939790
H            2.53559747435492        0.30300797400775        3.86228519362896
H            0.52782002586239        1.55518684088725        5.79896265782293
H            0.55617738697458       -0.14694651565661        5.29759091233131
H           -6.54423221147815       -1.96844256272081       -0.48632018785235
H           -5.31662041493335        0.08873375871389       -1.07151863415700
H           -2.65738680851523       -0.46203920775678        2.22160613941336
