151
 energy: -221.328084788579 gnorm: 0.005573433471 xtb: 6.7.1 (edcfbbe)
C           -6.74278932247647       -4.62514523478200        3.58823644333224
N           -5.01918918119877       -6.81121925192328        3.08728923198234
O           -6.64772636311634       -5.15334249446263        1.19402571893169
C           -5.89580547582174       -4.69493246567905        2.31857830944960
N           -3.59185465267585       -3.85558914948262        0.05548320654303
O           -0.95774255444826       -0.20066140103765        3.62169192324572
C           -7.47357882686634       -4.17357205630355        0.60667703288576
N            0.87149113379653        2.70185100460983        2.60860171303788
O            6.02156726083222       -1.15194145824151       -3.63770046570575
C           -4.73986828233916       -5.66388624448293        2.48730562025592
N            2.22195418076743        3.03143025866006        2.45761049952857
O            5.25665338780003        4.40224511130396       -2.83992056646884
C           -4.06086837393409       -7.70564159615783        3.25370974961895
N            2.48522341963929        4.49548236732737       -0.86393140840685
O            1.33405360284422        6.44615507842483       -0.91775122098070
C           -2.75069037668814       -7.49931356347930        2.85102334183641
N            3.23377751659732        5.21622822092096       -3.40551214193663
O           -0.97333606081835        3.94576107564504       -0.81285095033180
C           -2.44764457351534       -6.30202760660865        2.22665694205357
N            4.32354630571564        0.17555934805900       -4.34914984358031
O            3.91033920525299        3.73387286097248        1.15776721353234
C           -3.45336886770369       -5.36047196662019        2.01845723939912
N            1.32530338054260       -3.39117240183912       -1.56964408019958
O           -1.61280858205390        1.94130607200855        3.51781885254635
C           -3.13045050626249       -4.10587969895851        1.32888859657096
N           -1.51188785653367        1.21071739151921       -0.58109889661369
C           -4.24194450631256       -4.80998643629705       -0.80675452335544
C           -3.22393314345035       -5.60658430570867       -1.61990577522115
C           -2.36475606986317       -3.05474390560553        1.77991022486048
C           -1.61277248112050       -2.97121084938865        3.07151527067495
C           -2.26898335425868       -2.15151193950380        4.20685387787077
C           -1.45362105192303       -2.34861147835479        5.48783825755120
C           -3.70562364084093       -2.61653359512630        4.43424926261784
C           -2.29674975101865       -0.65689497943264        3.86282885113770
C           -0.75459892081989        1.09049532556647        3.44374647713820
C            0.71614278817954        1.36634537483762        3.17800334814915
C            2.71124650675963        3.50782104714601        1.30389796400796
C            1.72871600009446        3.82117411562859        0.17076903951452
C            2.27680607921590        5.75779486586920       -1.27142304349312
C            3.31967092268009        6.19474959237147       -2.32157589028194
C            3.16585804201588        7.65238522507813       -2.77398904141562
C            4.11408776289639        7.95547650384049       -3.93251189019627
C            3.47064063923132        8.57728221426244       -1.59648129901001
C            4.22413522897609        4.32138182702732       -3.51058422456301
C            4.01558186504974        3.04557560898915       -4.34723118843345
C            3.15740807624337        2.10831062910092       -3.48464913168590
C            3.01250698002773        0.74326702420795       -4.15655810567424
C            4.84727098549113       -0.78990839150262       -3.56602340650233
C            3.92513327220201       -1.39773999170696       -2.63787772357784
C            3.20775986972557       -1.96236336307834       -1.85222343526952
C            2.35665046827126       -2.62035878711255       -0.86180585586533
C            0.57104997376421       -2.63774745203059       -2.55037782330396
C            0.42083617547702       -4.12984283555067       -0.71176857049168
C            3.28154727707385       -3.57369211219806       -0.08483440011684
C            1.80085047679807       -1.53691248957588        0.08899274858239
C            5.15900363851741        0.96088595185253       -5.23058097840303
C            5.35042720373237        2.38245668820030       -4.69098777996544
C            2.01219495984814        5.24122540487655       -4.18578202093455
C            1.03824544381562        2.58034144270654       -0.40808335171812
C           -0.09995957345849        2.97651752231894       -1.36742829742322
C           -0.89980430688712        1.73007203751991       -1.78300303775884
C           -2.46163273276398        2.17422386252168       -0.04851891460326
C           -1.71589584565955        3.46009860771383        0.29486443611245
C            3.07147682220165        2.91526256083724        3.63731899085899
C            2.96589090846780        1.51586412851441        4.23485913148205
C            1.49777132633049        1.18976553761870        4.49346108311168
C           -2.35878546308161       -2.09385768052472        0.72557126677003
C           -3.11884506228418       -2.63767707420122       -0.34118613292522
C           -3.28346033074074       -1.94613087035006       -1.53656861705277
C           -2.73631637549068       -0.68481057950282       -1.64461614277416
C           -2.01392082510754       -0.11898899741776       -0.58417997120258
C           -1.79322758427488       -0.83201172488891        0.57680925949117
F            3.35026570161523        3.31297387755710       -5.54772094750476
H           -7.59152557871408       -3.96271994365093        3.44155628194728
H           -7.09872996463762       -5.62074643554710        3.83241576273520
H           -6.14256385177817       -4.24536945852252        4.40901588406646
H           -5.49343596163898       -3.69734404504846        2.08030752237565
H           -6.88229475135460       -3.30646961643144        0.28712393346302
H           -7.92900044846532       -4.64877816049849       -0.25892622901233
H           -8.25911599280606       -3.83645369523941        1.28885192656227
H           -4.36441865903062       -8.62312738757912        3.73865972712668
H           -1.99762508327914       -8.25293609965973        3.01381615937208
H           -1.44425344861910       -6.09254140469556        1.88212168597844
H           -4.84573718442076       -5.48513287350576       -0.19699575004713
H           -4.91150182091649       -4.26489085294306       -1.47637022967670
H           -2.56780740816848       -6.16616667561158       -0.95692610529286
H           -3.73878377613597       -6.30525803626725       -2.27201826818832
H           -2.61852763768741       -4.93704422547169       -2.22687724303504
H           -1.46594243982532       -3.98554081174438        3.44661613172013
H           -0.63195112462420       -2.53471219740138        2.87258606838197
H           -0.44361411338193       -1.96522961801087        5.35673611912756
H           -1.91755597125077       -1.81887794927391        6.31687062745432
H           -1.39436346985409       -3.40245945743077        5.74332090729232
H           -4.31197224128715       -2.41573586946642        3.55568929831012
H           -3.72052436347271       -3.68588817909424        4.62807985411964
H           -4.14759425625373       -2.10166629099146        5.28308384987262
H           -2.72470715948336       -0.07299083035066        4.68287835930867
H           -2.89302243123762       -0.47398558156450        2.96416053693127
H            1.08471249350262        0.64090103967478        2.44332209364066
H            0.39191067191911        3.38035837131535        3.20290421227586
H            0.97048078525622        4.52449812193107        0.53181638843349
H            3.39590700508655        4.08882374393269       -1.03826297819138
H            4.31482870480925        6.07373921980901       -1.87706211277315
H            2.13227683540743        7.82642546475759       -3.08529657092204
H            3.86340324926270        7.37895391376518       -4.81797467022116
H            4.06101928484188        9.01103650929677       -4.18407598563362
H            5.13725983611431        7.71786071083284       -3.64849870635861
H            2.79072230141247        8.38037365559109       -0.77153284388372
H            4.49286858782874        8.42950053409550       -1.25096777419700
H            3.35374835665240        9.61521835944324       -1.89832895248651
H            3.67415437528350        1.98783202157810       -2.53056730991031
H            2.17593868098903        2.54185030874460       -3.30322569720209
H            2.53516409277446        0.86039965171400       -5.13358441197084
H            2.41148125335124        0.08056071457126       -3.53460927290056
H           -0.17273730920982       -1.96219523663146       -2.10244209740503
H            1.25043916261405       -2.06171083878777       -3.17400046309923
H            0.04344129973258       -3.34673625378177       -3.18735960924353
H            0.97893630685727       -4.72659672819891        0.00238754332127
H           -0.28718554622206       -3.48246809772548       -0.17611262438879
H           -0.15103658765235       -4.80856200743594       -1.34441495119012
H            4.17830385310104       -3.04007465062896        0.22166758286041
H            2.79181552681860       -3.95949290067536        0.80403922059741
H            3.57259828227052       -4.40117260475490       -0.72594001213631
H            1.06159479743998       -0.91989378415262       -0.41579920947090
H            1.33504782278312       -2.01038843008005        0.94891329516640
H            2.61326544087007       -0.90076178457014        0.43091643338118
H            6.12609934723687        0.46310576453528       -5.31473314374225
H            4.68153257926523        0.99939976863472       -6.21428869939007
H            5.86507459750576        2.98852807487054       -5.43731481849742
H            5.95939802928336        2.36992120787896       -3.78627966421295
H            1.26779130305757        5.81292427292809       -3.63672535162138
H            2.18431617432388        5.71383198878613       -5.15335651486281
H            1.61673378284111        4.24497459197622       -4.36071211156057
H            1.76528565345616        1.97541048507159       -0.94798485760439
H            0.61436461650531        1.98715322711655        0.39760097215329
H            0.30704127613830        3.47825972618019       -2.25109321193522
H           -0.23619253442474        0.97549567087799       -2.20782476510636
H           -1.64071324896825        2.02985358895137       -2.54489225439946
H           -3.26046224299552        2.39084199268019       -0.78168273785411
H           -2.91694841540343        1.77209463223535        0.85784432808931
H           -1.05720851760643        3.27548304186479        1.14984172648915
H           -2.41577127191249        4.25787134060138        0.54614023863750
H            4.08978149120249        3.14398193724973        3.32298173138717
H            2.74559304147805        3.66326954667040        4.36975609742410
H            3.53388527953642        1.48003006082832        5.16361149188543
H            3.39015788663801        0.78861530225473        3.54099606935229
H            1.08997296445269        1.86859028194383        5.24690102277525
H            1.38495018971738        0.16684586626262        4.85054636347490
H           -3.83862744323989       -2.37105273629479       -2.35872435001310
H           -2.87398224836797       -0.11964474971936       -2.55459551901352
H           -1.18950662795317       -0.38443754857188        1.34578060140965
