151
 energy: -221.310244637091 gnorm: 0.008517417585 xtb: 6.7.1 (edcfbbe)
C           -9.09718870385449       -1.25418736797034        6.26968770014033
N           -8.17809771797982       -3.57664098803302        7.62228093278854
O           -9.37146269008069       -3.31898787343969        4.94762388657456
C           -8.43531038801146       -2.41344325521334        5.52485716903720
N           -6.06953843694817       -3.85236268224911        3.72175568396647
O           -2.05577791552908        0.22823746311554        4.63038182328845
C          -10.11473202017075       -2.79630629830199        3.86749443996905
N            0.93734061593053        0.63228059670939        2.87812194767056
O            7.57419837525069       -0.73835733965890       -6.10151498565461
C           -7.59473378454870       -3.23311501814900        6.48436745766936
N            2.07101866981759       -0.06532029009683        2.44117810627902
O            4.32254482958692        3.06738487959887       -3.57324610089165
C           -7.49809918276498       -4.28360951804514        8.50739117466214
N            1.94849369446754        1.33564838983774       -0.76510732906317
O            0.66805859685088        3.09947843113583       -0.17283621034971
C           -6.17741344910910       -4.66124875472851        8.32395484060604
N            2.16750241825009        2.48847996457370       -3.30560553557669
O           -1.06791655105346        0.49619227708744       -1.28896436034181
C           -5.56126216721829       -4.30908571153574        7.13630158417015
N            6.18585209319436        1.02444176981296       -5.76691336109038
O            3.46436045171364       -0.60200284526864        0.75952014525069
C           -6.27842844895950       -3.60012329343392        6.17518927398348
N           11.22522437572729        1.94647817973624       -8.38997663856919
O           -0.57504591311049        1.87803162025526        4.92177005007140
C           -5.66025982010441       -3.25156421771156        4.89117926432454
N           -2.85318857572393       -1.21941290206971        0.06169791338269
C           -6.91944734911787       -5.01364886144596        3.63753097672863
C           -6.12874036050057       -6.29581363682472        3.89594630686860
C           -4.67556391315248       -2.32693571065908        4.63761160560086
C           -3.96831511020681       -1.48864677200814        5.65345398565652
C           -4.29458829105353        0.03488663721181        5.63666954487913
C           -4.95523124448571        0.42253487601495        6.96517060276097
C           -5.24618404085333        0.42484305999724        4.50347112190763
C           -2.99431342321601        0.85636497576605        5.52061873036719
C           -0.87565113505362        0.78951602363283        4.48351651229225
C            0.11724134807450       -0.13765277778400        3.80327757265697
C            2.40031468205358       -0.12194163450376        1.14019361563113
C            1.35863338159768        0.38035162605064        0.14341885945778
C            1.49117496842767        2.58847625211186       -0.91993119832944
C            2.11561750139964        3.32687911237723       -2.10952349399947
C            1.46262692417706        4.70713232840691       -2.34609262775948
C           -0.01350796891907        4.64458817514020       -2.73042231210010
C            2.24688001772639        5.49569063572240       -3.39246896228880
C            3.31344365660499        2.50717438248757       -4.00355619912174
C            3.41990307018522        1.77898594146131       -5.35508292635298
C            3.91545974963945        0.33962451841483       -5.16886408707781
C            5.39126784552173        0.33444216064643       -4.77715536074367
C            7.25969420612301        0.43518888187745       -6.31766417708785
C            8.05211357785904        1.25170412668592       -7.19820630679592
C            8.86207388658847        1.80038809668108       -7.90316711568127
C            9.88802288100906        2.49369293300337       -8.68084784617372
C           11.64011662807725        2.12569322338009       -7.00947404274569
C           11.38303842541280        0.55484060548619       -8.77550716078402
C            9.56858262087933        2.33976781568842      -10.17662708539491
C            9.84600179433204        3.99077696270221       -8.32944247241118
C            5.82004805563047        2.40574890163511       -5.97366736991535
C            4.33992157741532        2.51972192077911       -6.33582193898037
C            0.97640295275682        1.74142215078082       -3.66531835805894
C            0.83448245163140       -0.83589934747354       -0.64853728225369
C           -0.67645717019815       -0.80414196016184       -0.87182397678397
C           -1.44328118175703       -1.20332172077822        0.39188355778528
C           -3.27654867528222        0.12023279979532       -0.30468082310122
C           -2.46167537807662        0.56425897425621       -1.52168028174124
C            2.93176694569653       -0.64579560376133        3.46182979848885
C            2.09918223613063       -1.56891670544608        4.34681690413157
C            0.93846066326375       -0.77889779652481        4.94212828541483
C           -4.45620495048802       -2.35582790769582        3.22749030514267
C           -5.34553065128036       -3.32117726186035        2.69327547760891
C           -5.40641594012500       -3.56675905328062        1.32519868079711
C           -4.58466852206135       -2.83231394196815        0.50168612832588
C           -3.68724019835694       -1.88393042860491        1.01463140536938
C           -3.60963853406791       -1.64956124182694        2.37221533812584
F            2.17150420501233        1.72995794477087       -5.99325387228051
H           -8.32862450535980       -0.65121919242284        6.74521249975738
H           -9.65945036158000       -0.62456602855999        5.58652800324260
H           -9.75912903406132       -1.65315605253872        7.03217911589836
H           -7.79031457764257       -2.01555467045776        4.72287692440790
H          -10.69571590093125       -3.62834182538090        3.47812988004839
H          -10.79384571427808       -2.00233701553953        4.18815307110527
H           -9.44908956705794       -2.41168178088818        3.08601375290334
H           -8.04219227065388       -4.54745831706051        9.40374403252558
H           -5.65279563812380       -5.21835231996886        9.08287245777962
H           -4.53664032842000       -4.58799269613558        6.93791660628742
H           -7.72931581747992       -4.91640710428087        4.36491658765494
H           -7.35745956809129       -5.04002934804913        2.63860942073363
H           -5.73424921854995       -6.29928053197512        4.90928743680139
H           -6.77349633378112       -7.16058850764449        3.77200889388028
H           -5.29758451509692       -6.37211912554659        3.19885550693003
H           -4.21192857329800       -1.88167619770757        6.64104679965783
H           -2.89611300394571       -1.61615197042695        5.49895339707869
H           -5.14648349636186        1.49264181832514        6.99917007488743
H           -5.90207045771258       -0.10183713111564        7.06956830929874
H           -4.32146999866688        0.16042025197911        7.80853746027320
H           -5.51158394833556        1.47441633696928        4.58982306759160
H           -4.79736967333210        0.26436332242259        3.53210131617588
H           -6.15697375765184       -0.16290357304831        4.56034629462882
H           -2.50245150924047        0.94517950780459        6.49436995905701
H           -3.20005103271839        1.86561187381375        5.15616892889636
H           -0.40713565550165       -0.91654978878652        3.24422490746833
H            1.21594742395418        1.50313979703633        3.33427076846266
H            0.55404353510478        0.90086951917374        0.66564490062944
H            2.70168623410421        0.99512829927632       -1.34655867927250
H            3.16332310134497        3.51882639569962       -1.83756264829287
H            1.53776762999685        5.22156338957440       -1.38238652149096
H           -0.14312018847764        4.24826314919012       -3.73243461979926
H           -0.56466168463181        4.03030738530495       -2.02380533019647
H           -0.42984771340995        5.64847298141153       -2.70701108735753
H            3.30415649581271        5.53546960587348       -3.14067758258795
H            2.14884092923748        5.03042381451389       -4.37182096449416
H            1.86436352127847        6.51002036538267       -3.45746762705406
H            3.33496188537186       -0.17641491844343       -4.40414090582374
H            3.78085259318333       -0.18365458776304       -6.11797908277603
H            5.76561136893795       -0.68834558484294       -4.70184560113425
H            5.52097516934559        0.83881029638336       -3.81282121236481
H           11.68244853280609        3.18234505527569       -6.76298373949282
H           10.97808434401542        1.61444318491177       -6.29337847883255
H           12.64268440121039        1.71577517405319       -6.90096986166143
H           12.40162955170661        0.25069371867722       -8.53922396359973
H           10.68866899406271       -0.11742716231531       -8.24739858374160
H           11.24085146807877        0.44249448727721       -9.84622254289703
H            9.36620086606692        1.30520843579601      -10.43781419170948
H            8.68752560858946        2.92553527495293      -10.42257100720341
H           10.41277523360409        2.70214931278481      -10.75557214283806
H            8.95304616553673        4.44018204763623       -8.75428093884778
H            9.82036003060997        4.14736859539534       -7.25508596060887
H           10.72242117781098        4.47763298106427       -8.74610340341965
H            6.00610934723769        2.96690706268496       -5.05276836007290
H            6.42747964417758        2.81952306541121       -6.77924522300456
H            4.16412187754391        2.07897763276480       -7.31930210412541
H            4.05948642909815        3.57256729861816       -6.37231183652575
H            0.32957136550345        1.66323696568223       -2.79448713419661
H            0.42471353559975        2.22695868365690       -4.46996476648045
H            1.23967339496983        0.73714731377633       -3.99273923917028
H            1.34457942307052       -0.85859984507948       -1.61143498038915
H            1.08231447958832       -1.75828330985055       -0.12313645505299
H           -0.94331073276892       -1.52057490491344       -1.66609194023220
H           -1.20480821655466       -0.47772870271175        1.18551712445769
H           -1.14757610599393       -2.20420083522899        0.70758970389374
H           -4.33788576803925        0.10226279837929       -0.55974298426715
H           -3.11752620816269        0.83943688367484        0.52077650013528
H           -2.67001437677495        1.60679616438045       -1.76595657502893
H           -2.71763601696716       -0.07644778005039       -2.37651051918388
H            3.72193798438455       -1.18877575961869        2.94332135924454
H            3.37846451976041        0.15659050122379        4.05894066311740
H            2.72453234181240       -1.97216606533602        5.14123940022708
H            1.71565915187262       -2.39629026020716        3.75007787477294
H            1.32116472623150        0.01593817457940        5.58695667206275
H            0.29251319715286       -1.42417192759416        5.53516956771875
H           -6.07535393856911       -4.30655319721482        0.91400938672975
H           -4.60423885216871       -2.98123840791952       -0.56626463376106
H           -2.91394398993541       -0.92861139243151        2.77313789235574
