151
 energy: -221.319176425684 gnorm: 0.004918662157 xtb: 6.7.1 (edcfbbe)
C           -8.07400347875122       -4.47856029999349        4.04620180016167
N           -6.13857388985838       -6.25815648380169        4.98643379529700
O           -7.01952371167017       -5.65487152034822        2.16234330665011
C           -6.80614422187383       -4.73802349894367        3.23439220054059
N           -3.88624844339246       -4.18381446975698        1.65396359916883
O           -2.27761512776277        0.33872237742047        5.59898502695288
C           -7.79473182535694       -5.15198484869853        1.09721569569707
N           -0.26304575137328        2.89733939969141        4.10324326264629
O            1.51279770164102       -0.99275887688166       -6.68877248148338
C           -5.72910125972645       -5.36032464922667        4.10155147878738
N            1.08028991023159        3.28681181312938        4.19654139808281
O            3.70647274676059        2.52033875380772       -2.00506182920220
C           -5.25421052345977       -6.83761732969580        5.77731568556684
N            2.26950646727366        3.75874742386350        0.78943204734261
O            1.28755434056119        5.69289546390663        0.15969595364671
C           -3.89929566248005       -6.54452491938733        5.74432601243315
N            2.74855855879068        4.53916482875587       -2.28465389916282
O           -0.37288573553244        2.99131721940077       -0.62534631208537
C           -3.46291156548501       -5.61060371344585        4.82326045692668
N            2.61695332582693        0.93557771722698       -6.23868554404694
O            3.08625947778076        3.61081472968105        3.25142788830870
C           -4.38158177327934       -5.00529872200310        3.96582321966955
N            7.12688877444992       -1.80403044374112       -7.17179526914847
O           -2.88506381890697        2.40035799532562        4.92581211250989
C           -3.89999216263274       -3.99336986103034        3.02004556441059
N           -1.51957866207930        0.59219811561623        0.21279533270508
C           -4.14509253862854       -5.42550000254655        0.97069080030087
C           -2.85094771433484       -6.19738203196221        0.71772228750523
C           -3.36587459735281       -2.76685370939308        3.33388295542733
C           -3.18450608274012       -2.13807244606798        4.67322648312080
C           -4.24233830476678       -1.06478458161102        5.05033993229418
C           -5.41612606868284       -1.74315508175869        5.76103831437664
C           -4.78732016839590       -0.29406036708728        3.84702586439832
C           -3.58850010200734       -0.06324592150482        6.02507792220989
C           -2.04917157405606        1.54606413116488        5.11813195263200
C           -0.54893240332160        1.76025926688203        4.97464472925816
C            1.88504324045517        3.39110018898128        3.12654127059877
C            1.25983346179832        3.32808903078362        1.72979932691799
C            2.18468952840905        4.86563170850643        0.05061734180971
C            3.29276306505740        4.98057723031148       -1.00066978578524
C            3.88667714370721        6.39465121499521       -1.06900694411010
C            4.96555399681254        6.46551070535030       -2.14651889780362
C            4.47352622054244        6.74227013275065        0.29797629505420
C            3.11167880419093        3.32912015770944       -2.72199892265670
C            2.84902166369306        2.93288301890461       -4.18400487862095
C            1.59483919140796        2.06620350583820       -4.32415369400751
C            1.42858589577213        1.61835705190331       -5.77921053168199
C            2.56268454090678       -0.34599285076492       -6.63848947127390
C            3.81397366490516       -0.95347035456362       -7.01187935990453
C            4.76796831794378       -1.61459096246008       -7.33476636712334
C            5.91242798500735       -2.45425707258402       -7.68152448845559
C            8.33213347568748       -2.60411330455816       -7.25090993149837
C            7.36130012036723       -0.47897859060760       -7.71251108342116
C            5.66753733756067       -3.78798620910772       -6.95576282419746
C            5.89983765453259       -2.68902822207062       -9.20849403321071
C            3.82374398825560        1.72205905781585       -6.15794044902103
C            4.07034801051481        2.17518134739804       -4.71851082663380
C            1.75696628707465        5.39946670414341       -2.89572641091027
C            0.75542042296478        1.94066192440638        1.31597963058136
C            0.42632020685010        1.90071660469594       -0.19027350576834
C           -0.28560063964059        0.58687490099574       -0.53422359773709
C           -2.39345294234212        1.64886276964830       -0.25344220041773
C           -1.67744637042835        2.98970175737099       -0.06432665212935
C            1.60290026039349        3.55833103554094        5.52994703237528
C            1.43179910653018        2.32881412403823        6.41234558536818
C           -0.04334612615356        1.94837349772582        6.42445797639413
C           -2.98399407790787       -2.16963865403073        2.10025527451240
C           -3.31954565067098       -3.08357438950556        1.07280497249314
C           -3.06171663494238       -2.78876538998898       -0.26269364345486
C           -2.47943145511628       -1.57518691201199       -0.55998230391845
C           -2.13547582493329       -0.66864011068919        0.45325988928873
C           -2.36663189002197       -0.96670818020329        1.77811441803309
F            2.70371668689083        4.07497603203020       -4.97767011668145
H           -8.48364754829121       -5.42916670450459        4.37258011343752
H           -7.83069506490388       -3.88133959845046        4.91982837162118
H           -8.81004889125492       -3.94583708860275        3.45086426514354
H           -6.42758238572167       -3.78963904368259        2.81378881193910
H           -8.83841393079637       -5.00700218842227        1.38716620280208
H           -7.38521448750193       -4.20344782906119        0.73046305608284
H           -7.74010314963326       -5.90331929434191        0.31232888696927
H           -5.65845071787986       -7.56175175882936        6.47117097687677
H           -3.21208094465861       -7.03175295562716        6.41640586303170
H           -2.41774359169479       -5.34755171135196        4.75183883243317
H           -4.82971606970520       -6.02219942752425        1.57626214187243
H           -4.63696964285815       -5.19963091707656        0.02071630395711
H           -2.16774821182348       -5.60293983340314        0.11561886344976
H           -2.36396800951581       -6.43507781167836        1.66037387152536
H           -3.06907678081087       -7.12256346709131        0.19340719165599
H           -3.19546465717528       -2.90959328722912        5.44409126908250
H           -2.19995246170636       -1.66782390743572        4.67928839546410
H           -5.88075967313254       -2.45523847330983        5.08376799889993
H           -5.08365993050448       -2.28035061798139        6.64575270958831
H           -6.16195153457583       -1.01100222188393        6.06041312970960
H           -5.20377589129807       -0.97395048688967        3.10934194812278
H           -5.57367990639443        0.38373066126446        4.17325634481918
H           -4.01455203612633        0.29871628183311        3.36711951921347
H           -3.43136170598747       -0.53574820160235        6.99756885807008
H           -4.21389404141418        0.82612448690314        6.13834002700721
H           -0.08446955860110        0.87126909958466        4.53787376015651
H           -0.87972328090815        3.67141360311862        4.35687514901049
H            0.44871334637262        4.06150127606689        1.67795113530848
H            3.05741060435509        3.13835722108874        0.67284785605210
H            4.09348851627690        4.27623266198541       -0.75354963051883
H            3.08636713716768        7.10450393470801       -1.29259588553228
H            5.40908781672663        7.45659572570959       -2.16314550245505
H            5.74906095675753        5.73927902574562       -1.93827721796684
H            4.55793447437651        6.25359138777420       -3.13111334106853
H            5.24926374572391        6.03206848574395        0.57423965738857
H            4.90523722679180        7.73898210649556        0.27625822153969
H            3.70016163362236        6.71823197065453        1.06299700358096
H            1.71338819934438        1.20132168026213       -3.67073598463730
H            0.71063237045645        2.62041965318785       -4.00765838273892
H            1.25588849152382        2.49510713911564       -6.41219423587679
H            0.58764720954757        0.92955131701306       -5.87624402429238
H            8.61200172929409       -2.86583019453137       -8.28171250433519
H            9.14449436215852       -2.02421396982641       -6.81560501676084
H            8.21802537489941       -3.51347688922370       -6.66771706908013
H            7.85553809426287       -0.49369842850448       -8.69568314477149
H            6.41761537726810        0.05471823900017       -7.80519411579885
H            8.00316270209702        0.06506905947555       -7.01899453095107
H            4.66055294316876       -4.13363245159593       -7.17766068484851
H            6.37172961240855       -4.54577421806527       -7.28529894486088
H            5.75929413590781       -3.64737905189741       -5.88231302347005
H            4.88029588845052       -2.84704298139378       -9.54767508604180
H            6.30691370395455       -1.83065764250960       -9.73367068872512
H            6.48881030615265       -3.56820175043652       -9.45520422689380
H            4.66624410053100        1.12873223149031       -6.51078815989098
H            3.70794831110610        2.60462031142065       -6.79672617500439
H            4.94004786210277        2.83153018842673       -4.68630435534102
H            4.25415109878054        1.32235070821337       -4.06686096769968
H            1.04493062265905        4.81619039774880       -3.47122238171433
H            1.21239644808342        5.90084152529931       -2.09629006956117
H            2.21951933400931        6.14265944738227       -3.54526330579947
H            1.52582782668009        1.19493233449390        1.50966248737413
H           -0.13584662598612        1.68987637728935        1.88759478182327
H            1.34656585563573        1.99229630459490       -0.77772924816408
H            0.32037945903016       -0.26760748680958       -0.23219511393606
H           -0.44458442515065        0.54637870253666       -1.62790224070539
H           -2.66056739513201        1.52069250874118       -1.31986125724617
H           -3.30786095588426        1.64134622152165        0.34060928534440
H           -1.63102617592200        3.23128686234620        1.00349491803036
H           -2.20999248121045        3.78708731384289       -0.58548778737818
H            2.65108908312122        3.83185773202147        5.41445497104476
H            1.05017587717985        4.40649321127851        5.94878676481999
H            1.77426326300234        2.55035766165410        7.42224694363036
H            2.02895757467053        1.50847908545026        6.01282305449971
H           -0.62339326640435        2.74414346156084        6.89993522179612
H           -0.20405049991348        1.02425472750183        6.97751081816779
H           -3.31168195844539       -3.48450413777339       -1.04968987925613
H           -2.27306307102684       -1.31621650302752       -1.58846190606643
H           -2.05605451730505       -0.26612775552878        2.53643027020049
