151
 energy: -221.321143379185 gnorm: 0.004892839514 xtb: 6.7.1 (edcfbbe)
C           -8.07929199482232       -4.60366583108998        3.70781909680309
N           -6.18434262562433       -5.72561643869612        5.45750767775841
O           -6.54135536589898       -6.08153558410772        2.48186229233904
C           -6.65092477910565       -4.87630663936332        3.24007717609764
N           -3.54034201852333       -4.18848867530523        2.08341926316472
O           -3.28970575601055        1.22907389587802        4.60533868181397
C           -7.03143499597279       -5.99285923737944        1.16190876424445
N           -0.30219686145161        2.95576091566287        3.58164127050304
O            2.31711529960428       -1.85147691751657       -4.83435502400542
C           -5.71556059044182       -5.04548472182588        4.42145869216305
N            1.05223184298213        2.83504444892097        3.91719501817709
O            4.84656931285653        2.76344352023067       -2.18008455081943
C           -5.40642998739753       -5.92138845341929        6.50719886691179
N            2.52962182393564        3.27976599138113        0.66000546917222
O            1.84026911819632        5.42552530170922        0.62106346498232
C           -4.10288602552091       -5.45531626095786        6.58542448545553
N            3.12856665718146        4.21148165037462       -2.10193879048956
O           -0.31832972925239        2.86292384917015       -0.69847374497949
C           -3.60893115707869       -4.73717662121228        5.51248748194530
N            3.68556281704215       -0.18592896838301       -4.12832613685526
O            3.16881933350620        2.52970178092521        3.20887466834699
C           -4.41939640301113       -4.51745691728120        4.39918078776906
N            6.73567783409189       -1.05341835197497       -8.32693433251161
O           -2.96112252360199        2.76688388700832        3.00905646344483
C           -3.90912755918583       -3.68236273391320        3.30640715029289
N           -1.55868215570875        0.42476683569697       -0.18377875634045
C           -3.42952027250699       -5.58875107515967        1.76082011755924
C           -2.08600490075019       -6.15802980786498        2.21475933617320
C           -3.68978686347939       -2.32531157662586        3.35631749652440
C           -3.85981183653604       -1.47320822150236        4.57223497643646
C           -5.04376779759614       -0.47139833321606        4.59573037610664
C           -5.55090482900556       -0.36782746802830        6.03856380193103
C           -6.18063094477721       -0.93909270162787        3.68798712710617
C           -4.61029871818180        0.93335775996385        4.12881780820374
C           -2.54806669382793        2.07287490409616        3.91124144309402
C           -1.09557115357234        2.00865567521171        4.35548273303155
C            1.98037742393184        2.69715744011195        2.95749038602822
C            1.46545654847989        2.82122768991841        1.52312844111157
C            2.59764960994361        4.54748850781766        0.23419137248662
C            3.65657884604275        4.76547056676153       -0.85229437258286
C            4.05441179901351        6.24561789386085       -0.97173657989796
C            4.92956479064303        6.47237156481325       -2.20115524186386
C            4.79594839512231        6.65950526533714        0.29772011950628
C            3.83512876690969        3.24192863345426       -2.69692143767994
C            3.37513572996966        2.67938904707120       -4.05627255349014
C            2.19786848279638        1.71124679190989       -3.89264704985855
C            2.68251366993604        0.39814162676549       -3.27079237073566
C            3.36473818503744       -1.21061565333357       -4.94138845536401
C            4.32095615061745       -1.51846399498030       -5.97036125610978
C            4.93969779628355       -1.78863363887551       -6.96765181700240
C            5.69943961211165       -2.08356532491029       -8.17830381771214
C            7.67500300938887       -1.27196908452885       -9.40727198721033
C            6.22242503625483        0.30174439654215       -8.37682632687465
C            6.33949438679951       -3.46628920330303       -7.97530749584758
C            4.68621182973907       -2.14780077882347       -9.34210059091938
C            4.87405655526090        0.62257312870046       -4.25219923577692
C            4.52583682838704        2.00232600956798       -4.81306133975538
C            1.83675427700360        4.73391149554454       -2.50220025516181
C            0.88670974067375        1.51173622175537        0.98163349611253
C            0.44480248311179        1.68471138313400       -0.48327182487078
C           -0.34944446378942        0.45625357135932       -0.95825806512853
C           -2.38144754082138        1.58781618493055       -0.40986896948480
C           -1.58449019724499        2.84379552220036       -0.05183901244700
C            1.40305769431127        2.97156934014633        5.32419983678576
C            0.57155228461321        2.02184388908932        6.18487712215911
C           -0.91290977323900        2.20208956184103        5.86716653712988
C           -3.14043509960488       -1.96495906301798        2.09113496658781
C           -3.02915016611379       -3.16124258438499        1.33713625625707
C           -2.43681153080244       -3.16515215460371        0.08021321916587
C           -1.96735754804919       -1.97258592770287       -0.42397987131788
C           -2.08755373839062       -0.77190609200790        0.29845413766306
C           -2.67744690375748       -0.76947326072767        1.55164734870335
F            2.97034528485088        3.74287418768003       -4.88645539793101
H           -8.73939432588985       -4.45298490277835        2.85841429422784
H           -8.42759821004039       -5.44579864420659        4.29723055403157
H           -8.09402788671734       -3.70957791690028        4.32407737663761
H           -6.29331481142514       -4.03918735600293        2.61802527340057
H           -8.11032405747660       -5.81677308664962        1.13890586173815
H           -6.52236010395866       -5.19247398536539        0.61134431559392
H           -6.81373712940683       -6.95410715782307        0.70090921720993
H           -5.85617972934327       -6.47577382774927        7.32099838426104
H           -3.49924527624765       -5.64393150120622        7.45845105733169
H           -2.60276999360594       -4.34354810420722        5.52063007727311
H           -4.24810550115021       -6.12703987609903        2.24472770158755
H           -3.53507856219899       -5.69739509823208        0.67904977994562
H           -1.26937121669477       -5.58223756172342        1.78462391272589
H           -2.00683010863614       -6.11882097253561        3.29855315830767
H           -1.99437454662599       -7.19207024301258        1.89633128919661
H           -3.98505119857150       -2.14708411255797        5.42068149850184
H           -2.93504837066322       -0.91635685769582        4.73258169948692
H           -6.40484611857771        0.30748966337944        6.09537367725257
H           -5.86522557828174       -1.34771918006517        6.39609933971541
H           -4.76110498096238        0.00744362986390        6.68793973948493
H           -5.84800524175761       -1.00463431622832        2.65546085532069
H           -6.51996682224934       -1.92122328052578        4.00274081945120
H           -7.01722887390472       -0.24774094235836        3.73900017761277
H           -5.29793927582430        1.69073757765812        4.51660928926960
H           -4.60598928696863        1.00693124295484        3.03734491360425
H           -0.74139047787731        1.00375789215420        4.08556578846387
H           -0.62978727397882        3.90746435774185        3.75307802779338
H            0.70044805303444        3.60324167652303        1.50085161673172
H            3.25758429089044        2.62224397836389        0.42440961424509
H            4.55056404891648        4.18065949750576       -0.61088778061776
H            3.14416748295476        6.84809684859091       -1.04273890146069
H            5.23111289825752        7.51488157754341       -2.25417850647477
H            5.82397851586554        5.85381463863366       -2.14012357220351
H            4.40007625672290        6.21984084799726       -3.11766685291710
H            5.02638971091154        7.72051736552434        0.26481027206457
H            4.18144516557653        6.46934721836522        1.17420186667940
H            5.72526558879636        6.10396976891770        0.39620990498025
H            1.41177424002061        2.15307255267197       -3.28203984143919
H            1.78876598666677        1.50703947986742       -4.88529983445965
H            1.85548774696190       -0.30793341361593       -3.18102308820346
H            3.12270188058559        0.57760567843174       -2.28612275769513
H            8.12912156797730       -2.25407372473943       -9.32181104651623
H            7.22088532349355       -1.16817825960653      -10.40446333126897
H            8.46216798463497       -0.52406311927413       -9.31767047899895
H            5.81786245046833        0.57299880944223       -9.36359921839929
H            5.44131894036786        0.42785668935345       -7.63049357003373
H            7.03870249292905        0.98579654294006       -8.14436575180256
H            7.17772444928125       -3.38674610015995       -7.28917967920990
H            5.60335630773664       -4.14497984080687       -7.55164216580176
H            6.67864955506668       -3.87627427329491       -8.92201821273703
H            4.15889440888293       -1.20244916606083       -9.44614967945586
H            5.19996303658191       -2.37484362280995      -10.27248152444910
H            3.95548453048401       -2.92758558724145       -9.14509856261126
H            5.31501092230203        0.74354861685397       -3.25905528241757
H            5.58910231787736        0.12594874970158       -4.90818859013170
H            4.20377572217229        1.90762764355913       -5.85275283148945
H            5.40717744700587        2.64172987643680       -4.77808295340594
H            1.06496259377807        4.38185647619361       -1.81323570050394
H            1.86324101707583        5.82058623493717       -2.45841456245558
H            1.57129308057270        4.44219295639630       -3.50888453145013
H            1.64070133880489        0.72552504493821        1.02745424576421
H            0.03177808396325        1.21693021029314        1.58736186085457
H            1.32987044053526        1.82325364500535       -1.11005245604695
H            0.22878656954672       -0.45023494322244       -0.78404629877058
H           -0.55012711631485        0.55896724659658       -2.03846019733766
H           -2.68263219939504        1.63944124563554       -1.47107601086556
H           -3.27674947231742        1.54017865417752        0.20788174447664
H           -1.46450742441447        2.90536079882012        1.03522974250009
H           -2.09764793222029        3.74058020124523       -0.40082125827057
H            2.46933059806909        2.76178033326977        5.40873571697425
H            1.21788979713343        4.00979966400764        5.62363935242204
H            0.76584844391746        2.23197885977718        7.23547629324705
H            0.86621013887863        0.99237491900432        5.97813091385194
H           -1.23889001238352        3.20694348244008        6.14518254365123
H           -1.51758517109842        1.47851246955295        6.41051078744646
H           -2.33505691681896       -4.07391201392489       -0.49368576830969
H           -1.50014491944760       -1.95596095580962       -1.39715073785307
H           -2.73891305820232        0.15549704225193        2.10230841449756
