151
 energy: -221.327857669380 gnorm: 0.003956282277 xtb: 6.7.1 (edcfbbe)
C           -8.89838607124372       -2.85966995720614        4.66673782561614
N           -7.72132369722677       -5.16006608320038        5.77846406284078
O           -8.44285870244582       -4.57335882899438        2.96212190528067
C           -7.85591085856078       -3.66921613844798        3.89508895406103
N           -5.05429602400159       -4.09867132901534        2.38476547940318
O           -2.23960597439881        0.22395257051479        4.91825101634528
C           -9.04704929251989       -3.95816605070359        1.84447458416492
N            0.26902688056605        2.38934639733596        3.67410512476663
O            5.36422182057940       -2.09124823695941       -5.04493468449377
C           -7.03351106546369       -4.51895890483472        4.84568463503524
N            1.63217323185029        2.66639700150978        3.81063570619590
O            4.30540497485470        3.22427838502439       -2.21592775906424
C           -7.08359997901089       -5.91723621818817        6.65314554224060
N            2.29759925848034        3.35405287864961        0.36388884486243
O            0.43034676817794        4.57348637258263       -0.00482459792898
C           -5.70666324108112       -6.07477105968619        6.65405044977526
N            2.19697566392453        3.92707221879153       -2.57157553014100
O            0.38320066575459        1.38729040185213       -0.76954365247364
C           -4.97867013824346       -5.41394091230464        5.68126657167808
N            4.46234990091803       -0.03846205945476       -5.39699164534865
O            3.59792964851841        3.09467385433632        2.80230470679841
C           -5.63616399890276       -4.61830510592049        4.74367200019695
N            7.66474111794554       -0.45137740387349       -9.75851945806350
O           -2.37975997890346        2.32693735387610        4.16643016520649
C           -4.86146778818675       -3.89443544175137        3.73258991107074
N           -1.45654200070798       -0.46318631822153        0.29975583976977
C           -5.66182425545044       -5.26415427446109        1.79220777163903
C           -4.61429509649114       -6.34351646534264        1.52039478621611
C           -3.91674240976819       -2.91114263002642        3.93904592025890
C           -3.43328677020851       -2.40412210419369        5.26058069248426
C           -4.09524855943194       -1.09901293390668        5.75864118681099
C           -3.65998011848706       -0.84392237502563        7.20357136776418
C           -5.61792999625342       -1.21003834669752        5.69146575391610
C           -3.66919219751635        0.08867085660075        4.89066417967125
C           -1.72719070893559        1.36796597750805        4.52095654239021
C           -0.20860329290551        1.36738512109053        4.59091175483973
C            2.41347120631054        2.78526635738904        2.72511327777704
C            1.74012738408508        2.49561851756869        1.38210330977820
C            1.58681998844216        4.28312001099738       -0.28280907360093
C            2.33675986380565        4.88966284108138       -1.47710789664825
C            1.84282810255113        6.29244251486147       -1.85357077791710
C            2.52354050932680        6.77485485851301       -3.13232925860712
C            2.13847448259484        7.24675459665331       -0.69847189841144
C            3.25467450649393        3.16610053710212       -2.86311208234805
C            3.23019303616996        2.16366302627961       -4.02490223863465
C            3.20943143007678        0.74599687699016       -3.44209980268867
C            3.31149769449312       -0.29147295219561       -4.55869750633327
C            5.39219152299670       -0.98841534794676       -5.59631844034325
C            6.41016894563879       -0.65401348898339       -6.56004910916555
C            7.23949517090245       -0.49771163276314       -7.41846896135927
C            8.25709291428335       -0.22823554281175       -8.42920089206915
C            6.90026041088583       -1.67597258224461       -9.87680653475961
C            8.60320678250234       -0.33056341276244      -10.85634491330430
C            8.63397935001109        1.25782252199108       -8.28489797638948
C            9.47687698779503       -1.11640717969118       -8.11203772358076
C            4.49591714415032        1.27695619531229       -5.99257501394074
C            4.47093853983385        2.35149866225176       -4.90437947674191
C            0.86084090563542        3.77150519061245       -3.10879836709887
C            1.95257373642996        1.01726513594444        1.00959200461972
C            0.78490024408158        0.43609383183003        0.20507472690372
C           -0.38019078371315        0.03115990253559        1.12613684078864
C           -1.90320485908994        0.57857891358743       -0.60074006252405
C           -0.73474540390640        0.94175519167618       -1.51215777536154
C            2.13384986103647        2.93427403700874        5.15092255780089
C            1.74506878624018        1.78794513897197        6.08106346725520
C            0.22971597673295        1.60354083975087        6.04935408056250
C           -3.49274681849253       -2.48499560815202        2.64449228924193
C           -4.22592892375002       -3.24705953264466        1.70544704191737
C           -4.06762838904650       -3.05009557527168        0.33825169312077
C           -3.17098408940223       -2.09763848603581       -0.07953147361044
C           -2.40649591969581       -1.34389655269457        0.83435842792824
C           -2.56170812330026       -1.54546483319607        2.19399019754223
F            2.12700230877831        2.32237138506615       -4.86289885918600
H           -9.43753573303645       -2.19390840494804        3.99874195079853
H           -9.59297333469183       -3.54300685093673        5.14461079078128
H           -8.40224526126502       -2.26499595264909        5.42746386872259
H           -7.18915224027080       -2.98450926919091        3.34550764134062
H           -9.99065252936232       -3.47371851355479        2.10982244870842
H           -8.37386880946673       -3.21927487507855        1.39604073338608
H           -9.24122947810154       -4.75801515778451        1.13316435553415
H           -7.71149265931839       -6.40930618548079        7.38285407181552
H           -5.22287183531932       -6.69736080684286        7.38890959339966
H           -3.90509806245618       -5.51951953338297        5.63115859604947
H           -6.43090488872218       -5.64403363717560        2.46674423866801
H           -6.14305746317026       -4.96656964424147        0.85732250285387
H           -3.85030949993550       -5.96545845821507        0.84448082779972
H           -4.13449386241980       -6.64364093395877        2.44932698479208
H           -5.08348242076698       -7.21363810088190        1.07208955944205
H           -3.61917356206394       -3.16791424579972        6.01679956949330
H           -2.35656824602201       -2.23541522815242        5.20104951341267
H           -4.02118181407628       -1.63676977523070        7.85227880254009
H           -2.57584434394746       -0.80362238974961        7.27197907171096
H           -4.06425333820512        0.10144785613560        7.55871513414951
H           -5.94791165518742       -1.30384721797670        4.66027201571342
H           -5.95013817612817       -2.08750528628907        6.24000272238453
H           -6.08524837012937       -0.32981362585268        6.12518422731770
H           -4.11391476128093        1.02108651856422        5.25243069004740
H           -3.97751778394798       -0.05892115566100        3.85133596798863
H            0.16838977208946        0.39540320331112        4.25413478802779
H           -0.29618416522190        3.23391711207239        3.78153879934636
H            0.67659181775272        2.73393534825392        1.44193480473938
H            3.26169145609464        3.19172079078525        0.10664443664043
H            3.40501246995180        4.93850956864837       -1.24291124442483
H            0.76006106087293        6.26195855061969       -1.99949985407682
H            2.24645336546168        6.16165509439263       -3.98466323197461
H            2.23466928015527        7.80114156441753       -3.33978329406866
H            3.60486585781212        6.73542725969820       -3.01835906214343
H            3.20863810685242        7.30473734454719       -0.51369635323790
H            1.77120804945254        8.24151573951541       -0.93438586337789
H            1.64643552280400        6.90546260860913        0.20934525557666
H            4.05763251071192        0.66024515616629       -2.76277192864349
H            2.29003493748190        0.59399505534422       -2.87528811018498
H            2.40965432172328       -0.24793290489681       -5.17996993605346
H            3.41498710132987       -1.29511351222630       -4.14232637973257
H            6.10549080084396       -1.68757376397643       -9.13290002212166
H            6.44906097570655       -1.70138626037529      -10.86809656081064
H            7.50661921091380       -2.58714832212218       -9.75383638387042
H            9.17192505118305        0.58957397607465      -10.76366750643802
H            9.29781948560905       -1.17986698707254      -10.92801227234841
H            8.02984431692467       -0.28356283511912      -11.78180669319515
H            7.82797086718452        1.87528856808199       -8.67129778923286
H            8.79275159034663        1.49520467209039       -7.23599855739567
H            9.54774243843966        1.48186437234055       -8.82747442647428
H            9.78939176217407       -0.95187736071186       -7.08433738506928
H            9.22460800397305       -2.16854021899925       -8.22726543023700
H           10.30468042376469       -0.87260893604688       -8.77332179162232
H            5.39578449604298        1.37517796937009       -6.59860261017460
H            3.61649608400254        1.39576596206672       -6.63551234489789
H            4.43773120766107        3.33773989251606       -5.36739617105023
H            5.35382707215243        2.29021531096229       -4.26932665059865
H            0.74799238091985        4.30182747548941       -4.05441106577130
H            0.63061295408670        2.72143140238345       -3.25896974711033
H            0.15635705458310        4.16834142379189       -2.38243678904128
H            2.87260938446840        0.94751100479860        0.42774278989327
H            2.07878617025867        0.42116718487761        1.91238602243397
H            1.11928493387284       -0.47632410998328       -0.31895901867637
H           -0.68432930293803        0.89953605911435        1.73467808476172
H           -0.03487760237009       -0.77105721991636        1.77915351736708
H           -2.74849140040831        0.23626587798569       -1.19386823586232
H           -2.20421092077157        1.47824404475943       -0.03575791744098
H           -1.01023650904912        1.76705420558010       -2.16821952446255
H           -0.45358438562764        0.06144941120165       -2.10957741916968
H            3.21546195028714        3.04216132175751        5.06947845888549
H            1.70513221638089        3.87609132147597        5.51102005917131
H            2.07703082390459        2.01506494099521        7.09271477171635
H            2.23571466764998        0.87118723682184        5.75153250890692
H           -0.26264410664659        2.49948402288391        6.43467582417526
H           -0.07196470070354        0.75171023967608        6.65705404885145
H           -4.62744463302689       -3.62726422032584       -0.38133878046206
H           -3.02070822035253       -1.93729491438257       -1.13566147662939
H           -1.97238807453328       -0.98903442103323        2.90323802446973
