151
 energy: -221.324190929681 gnorm: 0.008882156429 xtb: 6.7.1 (edcfbbe)
C           -8.16047913901287       -4.65568778519712        3.02682331523089
N           -6.87582283356168       -5.77570968588490        5.27707992798824
O           -6.52792641700382       -6.39561308475275        2.41478798741481
C           -6.69805502591839       -5.09441119365657        2.97470975283047
N           -3.48617793487214       -4.55774290754560        2.57947461493873
O           -3.30200453217035        0.98247045619369        4.19951759541306
C           -6.75902663030182       -6.48472922390495        1.02532861907360
N           -0.61072197158226        3.12751768340756        3.18832375136352
O            1.13127967861492        0.74873237112836       -6.87554734065815
C           -6.11207784820658       -5.18157368286945        4.37291268580801
N            0.66750919966171        3.42415150266884        3.68122074895618
O            4.22899609832537        2.35137019815084       -2.38000250097829
C           -6.43174076045647       -5.91206930803992        6.51393587788785
N            2.77965834026811        3.19671475532956        0.73450664611205
O            2.09582002684733        5.16360806995853       -0.13227943331003
C           -5.18790416682930       -5.46083675342393        6.92520051502166
N            4.10202941746887        4.58311256443668       -2.11538720793985
O           -0.05575801204244        2.21005702352718       -0.81238002415902
C           -4.38306331922866       -4.83899920464904        5.98828575834869
N            2.90074026245125        2.16239275008555       -6.70110985439457
O            2.88964201754978        3.48359230980387        3.37221890186436
C           -4.83516934032883       -4.68760003306609        4.67704496518598
N            5.42047073359983       -1.95530323102390       -9.18868548601195
O           -3.27317069237940        2.66274759904631        2.71497361645859
C           -4.00849418938901       -3.96271973863002        3.70682172014765
N           -1.06215820096843       -0.12438138626277        0.35855243198976
C           -3.40477113205897       -5.97662480555648        2.33817128515775
C           -2.10500677408381       -6.55888741831090        2.89370113631069
C           -3.67729765614433       -2.62619552124424        3.74603168114332
C           -3.96825013184230       -1.68169594980496        4.87019395968895
C           -5.07005906597290       -0.61921690771845        4.65107551464432
C           -5.43565706288415       -0.02450890688607        6.01440117804701
C           -6.30474471127715       -1.25658662488765        4.01554000723457
C           -4.58258132690687        0.51549073052797        3.73887241799148
C           -2.73860626548363        2.00129692376256        3.57664380128517
C           -1.32522429816245        2.23246126401265        4.09541826439130
C            1.76624341050381        3.27889609322701        2.92376893062698
C            1.55444559548476        2.92381866933429        1.45309496456853
C            2.95945038598898        4.30249604102078        0.00798861564770
C            4.32647718397681        4.38815530602915       -0.68285887843366
C            5.21847634621102        5.46692108283328       -0.04697137496968
C            6.64677423823271        5.34033651048832       -0.57610332755210
C            5.19846941522089        5.32355438419586        1.47520791251403
C            4.08465099224428        3.47825406052548       -2.86605448696040
C            3.86941322809418        3.56008066514289       -4.38698190270469
C            2.37039525933341        3.40349265970628       -4.67307306325183
C            2.10433997542496        3.24602050898252       -6.17190079406679
C            2.34468869417553        0.95512916890992       -6.93421493144689
C            3.27723858301887       -0.08506592240107       -7.28047628957745
C            3.97720155148178       -1.02429000130792       -7.55870892781002
C            4.92187085345500       -2.10880808404445       -7.81535260134622
C            6.22736691300812       -3.05231208252879       -9.67978085100504
C            6.07394401378709       -0.68798682443140       -9.44437305462379
C            6.01256749622166       -2.02174740433972       -6.72411738514726
C            4.14951174541505       -3.42879642864449       -7.66790671656375
C            4.32104229874510        2.38216575941868       -6.56197855569381
C            4.68772278321459        2.46644842587874       -5.08149849647442
C            3.71738618919490        5.91425415465938       -2.53925171610063
C            1.13710864865041        1.47317610434722        1.22012486674134
C            0.80292987191529        1.22199671807450       -0.26280997133522
C            0.15699842874640       -0.16372329161309       -0.41269277348786
C           -1.99114191784444        0.82835915761223       -0.22079388455697
C           -1.34901292969245        2.21556600477108       -0.22407359338691
C            0.74323783321025        3.96177629467183        5.03239639588251
C            0.05990543693154        3.01370538641189        6.01306304868556
C           -1.37103196760543        2.75883896567380        5.54128672811643
C           -2.91332429170379       -2.37427738044716        2.56728057887168
C           -2.79708440314282       -3.60778526723122        1.87777121538764
C           -2.07231253716356       -3.70390681871522        0.69506871479308
C           -1.49910424430006       -2.56158260138790        0.17718883694601
C           -1.62441838223819       -1.32947320207353        0.83355914213233
C           -2.30031271351350       -1.24564091752431        2.03646438020757
F            4.31842761088853        4.77782607003773       -4.91339391896179
H           -8.57564596003247       -4.58461179644001        2.02578370784234
H           -8.72572628401558       -5.37658083824476        3.60820250854391
H           -8.22594101243349       -3.68096242962324        3.50130275115004
H           -6.11679432338264       -4.37339038211030        2.37672376965172
H           -6.40448448203821       -7.47027122539771        0.73002341319243
H           -7.82093247811459       -6.39664468317844        0.78609873370951
H           -6.19779646568869       -5.71326737460241        0.48639573247369
H           -7.11032139866849       -6.40444524624084        7.19648886527719
H           -4.86296955451577       -5.59172922375120        7.94465800754928
H           -3.40097655176922       -4.47770348399538        6.25592336251080
H           -4.26423777716397       -6.46299367067365        2.80322483114910
H           -3.45611303115263       -6.14421707174607        1.25943174083195
H           -2.05567723742549       -7.62139646998328        2.67903727367071
H           -1.24694777315204       -6.06658013749377        2.44112494263314
H           -2.05724829578909       -6.41624264871782        3.97043415951523
H           -4.27164064325716       -2.27774425647476        5.73296990719368
H           -3.04593981428675       -1.15822721625950        5.12817406408761
H           -4.55917576321154        0.42419715393070        6.47512384280127
H           -6.19999618661172        0.74146515618370        5.90444821341932
H           -5.82049074527559       -0.79672103888248        6.67559216270664
H           -6.05918873547889       -1.68871192775190        3.04975865637023
H           -6.68022150639695       -2.04799367743867        4.65841941059971
H           -7.09043681570963       -0.51892205649075        3.87670672179043
H           -5.28937071291965        1.35197370993412        3.74189453390022
H           -4.47246282841190        0.16646769797983        2.70812155178388
H           -0.80336352760417        1.26809205488458        4.08629841045100
H           -1.15106209754683        3.98425786947693        3.05552127953697
H            0.79934558311706        3.60113868701910        1.03913655809433
H            3.54080721016415        2.54903414352249        0.86465657449160
H            4.82737354102369        3.41988139330269       -0.58779994543639
H            4.82099257690815        6.45327817014275       -0.29900531638930
H            7.24605120897453        6.17887769013096       -0.23558810507733
H            7.10059555101197        4.42129427184366       -0.21454274853551
H            6.66093904430048        5.32492382743502       -1.66289465367593
H            4.19601328214903        5.47514453981332        1.86800676614336
H            5.52843837188018        4.33496325594601        1.78255998067233
H            5.85400698577689        6.06177195453193        1.92434783794016
H            2.02362879963396        2.51641058375672       -4.13882680053175
H            1.82274393551382        4.26393734501015       -4.28661219510686
H            2.37302337213598        4.16600366969236       -6.69904474338485
H            1.05243417233376        3.01559655967911       -6.34629280631617
H            5.66248331233361       -3.97819727556346       -9.65102162453341
H            6.47504221047390       -2.84191625646775      -10.71831719562666
H            7.16899019720956       -3.18601153041763       -9.12802290694319
H            7.09506807107475       -0.63495416111214       -9.03745047457086
H            6.13105169262566       -0.54576990985620      -10.52459907646106
H            5.48077625660046        0.12177593086361       -9.02439996711849
H            6.49135657599736       -1.04446174438764       -6.73205879946385
H            5.56084095493549       -2.17475948170208       -5.74749843476866
H            6.76497989191751       -2.78993255952543       -6.88557272467600
H            3.49733553293044       -3.57006591137944       -8.52570315477789
H            4.83649600170163       -4.26885409869436       -7.58827812619055
H            3.53861902756605       -3.39288254027394       -6.76800162875689
H            4.86636302107259        1.56821989917149       -7.03800420679960
H            4.57234319811862        3.32390835293754       -7.05905371914962
H            5.74533898142816        2.70270240589410       -4.96909265512602
H            4.48565830912413        1.51999152541146       -4.58010976048516
H            3.12637184153183        5.88584318610321       -3.44387136698314
H            3.10211341422803        6.35064344238052       -1.75498269491034
H            4.59761756035574        6.53013973856947       -2.71244040069707
H            1.94681040417414        0.80358337049375        1.51110770373266
H            0.25727554263027        1.24418327350629        1.81773525504315
H            1.71090530539049        1.29123319639477       -0.87349104036067
H            0.81889409397457       -0.93173683113529       -0.01316401951665
H           -0.02443731220569       -0.35640336924847       -1.48312363635732
H           -2.25408308963326        0.53903972430605       -1.25524978838969
H           -2.90552357152604        0.86492155485937        0.37404881435305
H           -1.30280993242309        2.59413790883060        0.80308541167773
H           -1.93627909147485        2.90550454840906       -0.83136780839152
H            1.79752569308160        4.10132449647241        5.26335231787004
H            0.23953490199288        4.93387741869399        5.04298190374636
H            0.05952547730240        3.45997227612866        7.00691134477438
H            0.60874227797370        2.07199364588999        6.05388389179121
H           -1.94410116700168        3.68867898684814        5.56984208925359
H           -1.86523070010104        2.02565679103196        6.17698543206030
H           -1.96292968913039       -4.64525084587965        0.17735950947083
H           -0.94946118334923       -2.61423880917037       -0.75093135657240
H           -2.32217357506759       -0.29774404102625        2.54125627044441
