151
 energy: -221.322954851423 gnorm: 0.005297683670 xtb: 6.7.1 (edcfbbe)
C           -8.69494068399999       -3.58060803344063        2.91235899821122
N           -7.89676662004927       -5.27259691890980        5.05242997912803
O           -7.59045684572122       -5.65249131614466        2.17887635414175
C           -7.41268404031507       -4.41137190872336        2.86128326712351
N           -4.17313574548157       -4.72100061364862        2.70252925803575
O           -2.91848025898245        0.72650696301638        4.23842882416798
C           -7.77609654598547       -5.54112642833396        0.78395503713344
N           -0.28138737184584        2.84684738334655        3.15856958591866
O            3.70296973631755       -1.58908613464508       -5.33257831989455
C           -6.95819463185424       -4.76897701197489        4.26414701831710
N            0.85010979255457        3.49551822563145        3.66228492611507
O            4.93124409626916        3.32758297665531       -2.62629911685871
C           -7.59016081588195       -5.62024645255049        6.28906837587341
N            2.90848363196723        3.09767308543933        0.77179205874395
O            1.62816324787966        4.92636460484064        0.53573980756415
C           -6.32154448555521       -5.46650475846386        6.82609688033028
N            3.13088656881536        4.57103172837518       -2.08988559026003
O            1.63298457123011        0.57096328914403       -0.08827293695939
C           -5.33498025571475       -4.94068197617044        6.01232685405265
N            3.03362531576710        0.55648460946694       -5.62655505411318
O            3.00172816866175        4.07663977733484        3.32940571351863
C           -5.63539823509060       -4.58900444398583        4.69665200619264
N            7.18739632116044       -1.53236465612876       -9.02741087947525
O           -2.81004268869821        2.18762140792168        2.54885969665033
C           -4.57388596541759       -4.05468016677711        3.83855434571604
N           -0.21801235127273       -1.31983691096118        0.88808866047028
C           -4.47261713747707       -6.09554698713664        2.38604849118978
C           -3.51619162820936       -7.04500796648665        3.10612468381917
C           -3.84606085522982       -2.89466220569719        3.99578662863640
C           -3.96651825006382       -1.89634249721218        5.10296104550594
C           -4.83974181493834       -0.65738244023275        4.79701767718396
C           -5.02447621754300        0.14570627546813        6.08691524860608
C           -6.20262383996147       -1.08617446611416        4.25520487728623
C           -4.17589108612568        0.23282819162362        3.74405168451245
C           -2.34489916574337        1.69155761494774        3.55362288639395
C           -1.04148426321326        2.15348290627696        4.18715991074671
C            2.00856771575064        3.44483268910265        2.98750972849027
C            2.01057456780971        2.53093305695645        1.75541514506755
C            2.64589006197249        4.30140513258477        0.25586496302380
C            3.67840435267378        4.81820958469732       -0.75635548890143
C            4.03073370808571        6.28116882888833       -0.44935907892174
C            4.85098154652369        6.89290023708568       -1.58077091630397
C            4.80155602292924        6.31276221674143        0.86993257431900
C            3.77109793130545        3.67694081784053       -2.85542907113471
C            3.04809442144597        2.89170101134896       -3.96005027440694
C            2.92448498723022        1.47250556515532       -3.38439784252809
C            2.26231754721073        0.55272518140640       -4.40512976980746
C            3.73368739266225       -0.53667949471947       -5.97546557928790
C            4.51207174448216       -0.44922026185548       -7.18084688887339
C            5.20718311462340       -0.58669089566713       -8.15452652953565
C            6.01825253282971       -0.70702185431676       -9.36091830260114
C            7.93097050026872       -1.07986995572094       -7.86993693578435
C            8.08703623810668       -1.80119730506979      -10.12932373364572
C            5.13652642766939       -1.43968508780397      -10.38887920008185
C            6.35565316494053        0.70757447881928       -9.87340770705329
C            3.16102023828057        1.85511013895731       -6.24571717790291
C            3.81420501799303        2.85650987830385       -5.28315690932610
C            1.86402742900862        5.20165561397641       -2.40145111533542
C            2.41688875320116        1.10484463870061        2.12658274891460
C            1.74082719835570        0.05565246404101        1.23191613019539
C            0.36169277380328       -0.34626743199738        1.78454137106588
C           -0.37586688350992       -0.74753860479978       -0.43240167548357
C            1.00356655553074       -0.35710558836368       -0.94818024092364
C            0.65289401055008        4.39485755388725        4.78898937942863
C           -0.04567113763626        3.64431618459003        5.92049789937503
C           -1.35243691286639        3.04519611004102        5.40394749890008
C           -2.93683787146961       -2.84172507296241        2.89707471542740
C           -3.17046312270351       -3.99828808397902        2.11727474906142
C           -2.44602250291205       -4.24151879664251        0.95563595272887
C           -1.50231957998870       -3.31875106517728        0.57920033129813
C           -1.24426512303099       -2.16216276600937        1.34326833085369
C           -1.94702043201491       -1.93380204672292        2.51080837976445
F            1.75801854874512        3.34750131256985       -4.23177242343283
H           -8.52518550258207       -2.69079275814187        3.51025541659768
H           -8.99556736599609       -3.27757271083151        1.91353257829028
H           -9.48161889985444       -4.17411587933383        3.36767966155920
H           -6.62038862241581       -3.84082374664664        2.34969079440620
H           -6.97671324359022       -4.94272353854548        0.33187051668011
H           -7.73814805139624       -6.55809814114871        0.39920397741118
H           -8.74463755021234       -5.09818620730353        0.53673666055536
H           -8.40452537780106       -6.03448643085813        6.86756184978640
H           -6.11297366552909       -5.75656698746940        7.84280679435646
H           -4.32570195491642       -4.81696846854698        6.37688349324279
H           -5.50233434551987       -6.31668194867169        2.67252424002065
H           -4.38174010558554       -6.22178788443567        1.30514089203684
H           -3.74322773108991       -8.07224010933943        2.83770983340389
H           -2.48684350088626       -6.82607955743028        2.83116839192187
H           -3.61926518871679       -6.93500603231830        4.18335479398896
H           -4.39977064568508       -2.38959096634067        5.97418359241596
H           -2.96733411619583       -1.54582418025088        5.36862736567140
H           -5.57638420030196       -0.43832907779595        6.81782242597060
H           -4.05850097334400        0.41038593435833        6.50879370586563
H           -5.57753216124496        1.06060480553974        5.88822985046762
H           -6.67726026646072       -1.77305863698861        4.95095465447408
H           -6.84925746022873       -0.22314564467678        4.11921146968605
H           -6.08996542293332       -1.58837254967131        3.29795146574279
H           -4.80887609737349        1.09190515352212        3.50037705928380
H           -3.98798098359048       -0.32386956472009        2.82154868455071
H           -0.46590549660923        1.28031360446061        4.51245107803737
H           -0.89269538027678        3.50752910087465        2.67383967694318
H            1.00252107658303        2.53983749822402        1.33174935696023
H            3.77985510911535        2.62590636872061        0.58848804787302
H            4.59316019847350        4.22177943493540       -0.69693944216994
H            3.10276918994095        6.84573426743671       -0.31224353008283
H            5.69518801853382        6.24945129552832       -1.82032509988960
H            4.24873666970789        7.01517401909024       -2.47715971605420
H            5.22768296377345        7.86681698182350       -1.28115335143349
H            5.74952431133461        5.78964426608123        0.76835921701715
H            5.00222217827784        7.33951224249233        1.16320937013923
H            4.22749056699955        5.83567437152511        1.66354405690764
H            3.92944431552751        1.11533694295920       -3.15595828126490
H            2.35516671735346        1.51048007964260       -2.45585220023277
H            1.24827494812523        0.90129075955032       -4.62440301247768
H            2.22725470558026       -0.47290683216804       -4.03307338823363
H            8.60984789987582       -1.87722627899010       -7.56810107331297
H            8.52975413714158       -0.17608654792066       -8.06432507070762
H            7.24819861993727       -0.88071015376979       -7.04670744271769
H            7.53374442448813       -2.16026466749318      -10.99097473622385
H            8.68641247540112       -0.92549903365612      -10.42154899797448
H            8.77236768283963       -2.58754329277788       -9.81379128063721
H            5.56591417938641       -1.37802436702320      -11.38221964792148
H            5.03306602197271       -2.47993146369705      -10.09926230746451
H            4.15091119069656       -0.98209360030933      -10.41240663768589
H            6.92153350994211        1.26083976266917       -9.12754821332883
H            6.93851035159824        0.64235323970176      -10.78815227467092
H            5.43721864681568        1.24911651022587      -10.08360367154972
H            3.75643247333264        1.76229955778658       -7.15410859396626
H            2.15763576637875        2.21010402713137       -6.50432106129748
H            3.81240094183928        3.84982635496049       -5.73468549696624
H            4.84426278902501        2.57097497599772       -5.06361770043146
H            1.82418665502506        5.47735836411596       -3.45149362980677
H            1.02030095374130        4.55245813202713       -2.16199969406013
H            1.77686571108742        6.10019295412811       -1.79812113758474
H            3.50099621654302        1.02067557473406        2.05376512722058
H            2.13606047728443        0.90582567652321        3.16004942835148
H            2.35956939934686       -0.85604091684633        1.19757879744015
H           -0.26249800418300        0.55886476199988        1.88821616369719
H            0.50105440898062       -0.80829654650940        2.76270505882732
H           -0.83121629084872       -1.46871942089805       -1.10794904892242
H           -1.01417586863707        0.15383646219344       -0.39336345842352
H            0.91301426151874        0.12828332569441       -1.91865471462099
H            1.62977889856725       -1.25572737651503       -1.04214816685032
H            1.63692705784603        4.75717170664482        5.08565860369007
H            0.04332477977021        5.24502664091471        4.46123513918709
H           -0.24481541350782        4.33281565704316        6.74022868208394
H            0.60667181884802        2.84965410193048        6.28428481968550
H           -2.03142966136627        3.84437467691256        5.09762789469198
H           -1.83958244138222        2.45030826722091        6.17506870956775
H           -2.60763183885392       -5.12899437362822        0.36142565405393
H           -0.91659761008776       -3.49042956675572       -0.31054022940685
H           -1.74021186745404       -1.06881552634340        3.11912533722486
