151
 energy: -221.321342184460 gnorm: 0.005413666632 xtb: 6.7.1 (edcfbbe)
C           -9.51117579678080       -2.73014790465837        5.66270316300648
N           -8.10425962245611       -4.53441166383198        7.33626070943251
O           -9.02883435757235       -4.88005266278770        4.58260225899272
C           -8.45179947190016       -3.68537548504697        5.11123353106835
N           -5.51495052691602       -4.36618068084285        3.68652558825291
O           -3.16223953108605        0.77873841600792        4.46262597486106
C           -9.61119596740451       -4.73937443846693        3.30551611185899
N           -0.59958607205974        2.25571719549023        2.47490389347377
O            8.39883671220622       -1.35972294159381       -7.31500585819491
C           -7.51546556694573       -4.12094348977659        6.22298557335855
N            0.78020840488055        2.46524497153659        2.56058913383485
O            5.08127606453523       -0.06542459602901       -2.98455904367152
C           -7.36274437817983       -4.92271203328512        8.35679330457557
N            2.11613245210970        1.27660476518945       -0.61113355821621
O            1.59148328349813        3.13597743428451       -1.76935924247182
C           -5.97658772207299       -4.90057514493963        8.33976783196529
N            3.60236054524431        1.53081514743721       -3.55213601255545
O           -1.13546923016598        0.58940078231700       -1.31656642974434
C           -5.35308352497714       -4.47616429257374        7.18136009098499
N            6.23816234744388       -0.67335188249528       -7.47744569724396
O            2.83129370239414        2.26830763831252        1.67911731500224
C           -6.12133612230833       -4.08892227005057        6.08292529532076
N            7.84803649864043        4.22534278637290       -7.77306412109511
O           -3.29635672814022        2.36156311040347        2.88213604820171
C           -5.43322551381366       -3.65352475653809        4.86344611571315
N           -2.29654062953179       -1.13479573711325        0.56805841893501
C           -6.07694510248436       -5.68703285975726        3.54937372145357
C           -5.05224437180127       -6.76317113765804        3.90425376796710
C           -4.60883097650281       -2.56187221014009        4.70989675801782
C           -4.22975651716358       -1.56651715700914        5.76010978564533
C           -4.97621715380560       -0.21232814197615        5.72632263144475
C           -4.59978119832508        0.58126241967071        6.98045570759844
C           -6.48606381421253       -0.43914834494455        5.69341928194698
C           -4.58549786567228        0.60410412279729        4.48874225299870
C           -2.64936976902893        1.64159084755878        3.61000544030565
C           -1.13125979780623        1.64608909704543        3.68936549642949
C            1.62318263546662        2.06691714197418        1.59727767582499
C            1.03301187205966        1.41067466632246        0.34091174874193
C            2.37662136605999        2.23023058663526       -1.51274919655601
C            3.73334437522565        2.10078290740522       -2.21160328255620
C            4.42847143251207        3.47742265836352       -2.22770419472191
C            5.74811124259461        3.41232512150783       -2.99161901797719
C            4.67735100594230        3.91654071350836       -0.78603685612026
C            4.37720572854430        0.47589993008775       -3.83794202767142
C            4.45599761953725       -0.05654434035515       -5.29270199552179
C            5.33396563566160       -1.31488521148576       -5.30834331456111
C            5.70164490566851       -1.78138167490285       -6.72101132200107
C            7.57370596555091       -0.48307652219077       -7.57174587453373
C            7.97036806626730        0.83548669644667       -7.99758567019684
C            8.42478157856611        1.92555840883373       -8.24186174098039
C            8.79813250332290        3.32803887651310       -8.44841356162895
C            6.51943639027422        4.22366009339368       -8.35959248981406
C            7.81463554718552        4.05329146861757       -6.33218307722619
C           10.20953843403117        3.55099179501339       -7.88272540301177
C            8.82109286437229        3.61849119387798       -9.95666786552110
C            5.28491348338693        0.39862469342737       -7.61920996201209
C            4.99469755617293        1.01139208644951       -6.24835649499510
C            2.69981672977794        2.21465383333623       -4.45532535340136
C            0.35346405062197        0.06507543206762        0.58132926698063
C           -0.37294923557113       -0.42824484729956       -0.68539325113739
C           -1.28061412375784       -1.62051000229075       -0.34299485668139
C           -3.12121359519227       -0.13037825689940       -0.08694901021586
C           -2.23432251300490        1.02876203153661       -0.53482501248347
C            1.26137261210375        3.21166318126303        3.71509447581651
C            0.81691703021174        2.50739235877956        4.99236180929123
C           -0.70379369800858        2.37593612795954        4.97855226148634
C           -4.14778397976726       -2.60349234582215        3.36092322244244
C           -4.72122661017882       -3.75128840343257        2.75822197120364
C           -4.44801731909772       -4.08048232660699        1.43457478061314
C           -3.63521632006501       -3.23928878229265        0.70331169698475
C           -3.07277753067372       -2.09313727729936        1.28217927119738
C           -3.30134236803514       -1.79509615664478        2.60987120275087
F            3.16799881271394       -0.42683288058020       -5.71687176885191
H           -9.02913243405312       -1.84382090025958        6.06283670565472
H          -10.20361119032591       -2.42813102398780        4.88198745358336
H          -10.05598770039002       -3.23458096584603        6.45431617234553
H           -7.87200989831977       -3.19016078583171        4.31673822169884
H          -10.36220090244580       -3.94454830115417        3.28141426950477
H           -8.84459652028974       -4.52874410001938        2.54827156774522
H          -10.08922888195934       -5.69298575469579        3.09168129669621
H           -7.91164316530658       -5.26328871874150        9.22633244097501
H           -5.40729769408762       -5.21119959355664        9.20028138098937
H           -4.27596647063833       -4.45387958993249        7.10696556964412
H           -6.94763229633738       -5.77518560390745        4.20241855941498
H           -6.40677152030518       -5.81208519682671        2.51519503360233
H           -4.75701747323232       -6.67166349655551        4.94687704305844
H           -5.48239060190652       -7.74786401049699        3.74933594565378
H           -4.16650345761474       -6.66156399160678        3.28126953987080
H           -4.41729494201043       -2.01096643025856        6.73871640280910
H           -3.16165410510406       -1.36212701438152        5.67455611186588
H           -4.90805076950133        0.04645132588111        7.87464862445418
H           -3.52496320608487        0.73617920593102        7.02077696937420
H           -5.08969765780310        1.55216440170831        6.97544191990803
H           -6.77099162550981       -0.98333874978582        4.79682856787344
H           -6.78872545082496       -1.02056377780515        6.56072360229555
H           -7.01664730972749        0.50935058795124        5.70606991036329
H           -5.06117397393982        1.58997831885262        4.50001356240091
H           -4.88602492774708        0.08845933710216        3.57162648927121
H           -0.77574875242558        0.61043871306645        3.73361237703011
H           -1.08922947304238        3.13561460601439        2.30035407201383
H            0.32058093379365        2.11388126680641       -0.10478109768473
H            2.84046109694489        0.61325500214729       -0.37594593136153
H            4.36206825161356        1.40363386670744       -1.64931249644192
H            3.75541923283111        4.19749218549005       -2.70280199872005
H            6.27412063594818        4.35836685866325       -2.90166244187128
H            6.37919872438658        2.62586416972764       -2.58214504048857
H            5.58824299271601        3.20696341744445       -4.04628299896148
H            3.74394934767801        3.98070695261840       -0.23109909120521
H            5.31927192758925        3.20225429649910       -0.27557131176059
H            5.15676513416771        4.89100738161576       -0.76760743467623
H            6.24300697249646       -1.08764488141188       -4.75016574569464
H            4.80862189062829       -2.11059305211834       -4.78025520219691
H            4.81932223994215       -2.16515233791305       -7.23900305057548
H            6.46149793120759       -2.56201438891423       -6.66379394041799
H            6.11078337234376        3.21506087099840       -8.50270908182748
H            5.84772429992567        4.77438039091814       -7.70615742242760
H            6.54381855776044        4.73517526413875       -9.31913298883127
H            7.63684533112005        3.01282293742382       -6.02101415616145
H            8.75448071731277        4.38773366186850       -5.90039102931588
H            7.02227732673840        4.67595094907817       -5.92368421846112
H           10.30784942622621        3.13183234937806       -6.88553637499983
H           10.94203650392856        3.06725797247854       -8.52239364192063
H           10.41320428456689        4.61696084692995       -7.84873331371515
H            9.64290225363542        3.07854090341424      -10.41692334990466
H            7.90020092317643        3.30294236248132      -10.43682514274624
H            8.96414870184710        4.68316973222836      -10.10980589892807
H            5.68119656731516        1.15240482729408       -8.29938959516261
H            4.36514983404188       -0.01589307186696       -8.04032099588579
H            4.27737638224929        1.81855227533771       -6.36561769769561
H            5.91818282663768        1.40870904778379       -5.82305134369234
H            2.29087759804083        1.53087576430301       -5.19163483520922
H            1.87368190135781        2.61885704463291       -3.87286106680220
H            3.19977256551755        3.05001294261187       -4.94832651021030
H            1.09533476531112       -0.67932290794681        0.86854396325646
H           -0.38000306453978        0.16428651138748        1.37756941960100
H            0.35768928026436       -0.71655809301455       -1.44834002486048
H           -0.70591603504883       -2.40315994075951        0.15128845029334
H           -1.70120876512889       -2.01768542561081       -1.28105219964269
H           -3.65170031269770       -0.55576952899982       -0.95869709838544
H           -3.85964658021215        0.24400415969336        0.62525079007022
H           -1.88590183041380        1.57343507971533        0.35029168388456
H           -2.79122643238772        1.71011234465420       -1.17978434477351
H            2.34682096139260        3.26614068292937        3.63555689018263
H            0.84545130563366        4.22452177405701        3.67402704640861
H            1.14344327886802        3.07909134904932        5.85934174175621
H            1.27488038437809        1.51831245288495        5.03530990102856
H           -1.16238944190342        3.36736809501629        5.00337922704620
H           -1.05246979479748        1.81064552661139        5.84160657767867
H           -4.86758968074075       -4.96242151034468        0.97492968220282
H           -3.43245476351002       -3.46590298570771       -0.33323192489878
H           -2.81445239167030       -0.93558576134595        3.03323483257058
