151
 energy: -221.321409802387 gnorm: 0.009822561875 xtb: 6.7.1 (edcfbbe)
C           -9.34226565934932       -3.03644083592557        7.04562925974331
N           -7.44079258512166       -4.78715499369286        8.15959097305858
O           -8.96635493446251       -5.01056363210225        5.62317119634500
C           -8.38010580928466       -3.82446732284468        6.15970827936625
N           -5.75696715459922       -4.31204132090307        3.95808268523699
O           -3.52971320361131        0.88727668563069        4.61472770082665
C           -9.98423873863097       -4.79308728197262        4.67217916855832
N           -1.10857683406338        2.45335625723991        2.50288373494297
O            5.23253382847241        0.24174562636672       -9.82867765907527
C           -7.17814608994069       -4.29179758913156        6.95749155426608
N            0.28135821117078        2.60741968930648        2.58245871943954
O            3.58731917360010        0.25968735002719       -4.04665698421066
C           -6.45078152745390       -5.24057938732674        8.90504341260037
N            1.64807097133497        1.11660087501937       -0.45443082650678
O            2.03027754591921        3.28558665505557       -0.92305808350611
C           -5.12417645417029       -5.21659038449590        8.50149444396991
N            3.72732172962797        2.28293254401654       -3.06198364622913
O           -1.76416195090824        0.84897933473851       -1.19645559427173
C           -4.83898858332102       -4.68786614927119        7.25809958926875
N            5.14123833405984        1.75772113651257       -8.14528408672647
O            2.33428020701096        1.98154824995743        1.94434341418052
C           -5.87699761595818       -4.21970285457749        6.44932600188911
N           10.21468956290754        3.00479783075036       -9.49155160538170
O           -3.86833775318794        2.45635267193988        3.03985694328733
C           -5.51083131637294       -3.65573311673053        5.14377390747597
N           -2.97442060409317       -0.92257532566159        0.59668342171110
C           -6.35865214826570       -5.61494061927992        3.82980899459906
C           -5.31790730872597       -6.72707463280280        3.94268671727832
C           -4.76942221651636       -2.51875765223315        4.92046318910579
C           -4.28444157822657       -1.54372345976156        5.94497362051844
C           -5.09725218500439       -0.23370263579517        6.06276093995698
C           -4.58480332431200        0.55251530313165        7.27169859112018
C           -6.58116770623337       -0.54345838307105        6.24283450505386
C           -4.92860411376686        0.62972109888555        4.80460933122512
C           -3.13605061402669        1.77440326036746        3.72032423882010
C           -1.61731983772902        1.84515360368711        3.72913160862313
C            1.12463164728801        1.99382533381797        1.73769484675231
C            0.54508796999182        1.39651146971297        0.44649785699733
C            2.36323077886770        2.10964768726319       -1.00601260414230
C            3.61404900759199        1.64063194225796       -1.75689007534672
C            4.87661889158581        1.86010409632878       -0.88671658382467
C            6.14344109180606        1.71272738888989       -1.72708868955331
C            4.89002442592930        0.85253026517500        0.25987771550372
C            3.70315614374808        1.48541691696788       -4.13603593097839
C            3.94534016713752        2.06927836249239       -5.53945272006483
C            3.34002842729372        1.15099173800537       -6.60352915975344
C            3.70686366901438        1.64285049136798       -8.00057261972609
C            5.79346552222347        1.04609004426504       -9.07925448137994
C            7.20348945714532        1.30793585362396       -9.21642528049449
C            8.35575086180592        1.49507604859858       -9.51399558459354
C            9.75115322260428        1.67126553078395       -9.90116278842008
C            9.30713053448066        4.08722721149803       -9.80840625566527
C           11.55534742042101        3.33293015975799       -9.93361624909569
C           10.55076808848679        0.59693852470871       -9.14282144553756
C            9.82238912824019        1.40885930275037      -11.41988730425045
C            5.76463912568820        2.65086617465008       -7.20017090653731
C            5.45655018811325        2.20994814197277       -5.76608936706666
C            3.80651212011994        3.72987363407975       -3.08943489248873
C           -0.28787576151022        0.13491044531688        0.64517176981079
C           -1.04475804565449       -0.24223002843583       -0.64297082829139
C           -2.00535665776499       -1.40738933264275       -0.36165153476238
C           -3.77168939218551        0.13611053456161        0.01042771166937
C           -2.84333262723610        1.28495799239910       -0.38320216880775
C            0.78772801401780        3.36293884561075        3.72131319563938
C            0.33004887184342        2.71454159776159        5.02378064432941
C           -1.19086475989703        2.60111693343363        5.00435687680718
C           -4.52066820508243       -2.47968281154832        3.51833046812014
C           -5.14057244431357       -3.62256222346141        2.95115130284360
C           -5.04316172899658       -3.88932104511571        1.58917263497943
C           -4.33566710665631       -3.01052402995127        0.79529151663445
C           -3.71199760605511       -1.88140314583756        1.34477345626997
C           -3.79015871459405       -1.62775483523856        2.69798751267450
F            3.33622418421414        3.32206921925320       -5.68408690325651
H           -8.80660311663435       -2.22107606294320        7.52217269407540
H          -10.15700082847644       -2.62073077535265        6.46022688897854
H           -9.73884039544441       -3.69498839730781        7.81260486304270
H           -8.03705928463858       -3.19357112477896        5.32208254550584
H          -10.22948300488438       -5.77185069715725        4.27277854869628
H          -10.87266511575547       -4.35453750467504        5.12466490472652
H           -9.63204140619101       -4.14436959421986        3.86465609766916
H           -6.73935831791417       -5.63373591177568        9.87034164905046
H           -4.34434082249830       -5.59775830948371        9.13994209904318
H           -3.82396851178772       -4.63502897682910        6.89217077152783
H           -7.11403267583436       -5.73398286308690        4.60956150904226
H           -6.85591480212937       -5.66576745218808        2.85784906705068
H           -4.84241817975418       -6.69901642057472        4.92056989414217
H           -5.79783394569191       -7.69234135533285        3.81809882921394
H           -4.55302172857412       -6.61033315358301        3.17904667202082
H           -4.30280066605609       -2.03091911326902        6.92273686637224
H           -3.25104703921406       -1.27928930614380        5.71405185265585
H           -3.52207289775730        0.75353708251660        7.16859651482043
H           -5.11028804234692        1.50034291845111        7.35783079329962
H           -4.74483094356820       -0.01246494624434        8.18561739688755
H           -6.97519284131817       -1.04909472323644        5.36582343621467
H           -6.71623004454497       -1.19223529339654        7.10413981847895
H           -7.14911097586987        0.36923101297384        6.40070140853653
H           -5.45562447213326        1.58341819250973        4.90516877626412
H           -5.30985936127359        0.11331943972162        3.91992477737960
H           -1.22672664617545        0.82304432979049        3.78076950979502
H           -1.55907869088375        3.35944061130556        2.35856299258517
H           -0.06673032046276        2.17480248014322       -0.02331981716774
H            2.05650268721485        0.19288285025891       -0.39578048250919
H            3.52367214038417        0.57127745773420       -1.97257606870328
H            4.83629608094848        2.86687286743086       -0.45733353569138
H            7.01553787407583        1.78398999397857       -1.08443928850938
H            6.15192502050139        0.74471472861170       -2.22514055473497
H            6.21453510386805        2.48841344717618       -2.48327166486838
H            4.04357526920931        1.01217596975938        0.92249673926115
H            4.86559777148846       -0.16417141569747       -0.12653790298900
H            5.79699310111040        0.97475469309148        0.84429878446266
H            3.71351232403891        0.14129694467539       -6.43573953006902
H            2.25534823670427        1.13879936216463       -6.48985417436739
H            3.25771406644604        2.62750315949790       -8.17269889678066
H            3.34733064258170        0.94403653699327       -8.75794594505568
H            9.22679664820101        4.29228261295191      -10.88891958650703
H            8.31318187480267        3.86038546651862       -9.42323080417560
H            9.67590286845838        4.99039806010829       -9.31911771047635
H           11.61146221277216        3.56152716265657      -11.00879213863671
H           11.88302836447461        4.21464180236983       -9.38402999997572
H           12.23878302112375        2.52056280593323       -9.70754859215532
H           10.06282851675934       -0.36711731891125       -9.25529605278467
H           11.56050261578302        0.51597765201571       -9.53485553322673
H           10.59597773602562        0.85327905312813       -8.09000769338457
H            9.28135637101914        2.17927907674400      -11.96525226383788
H           10.85589651825008        1.39269969204655      -11.75396196481440
H            9.36593207052269        0.44871541144487      -11.64631872136102
H            6.84441182878386        2.64986241861494       -7.36207549825472
H            5.37638612639872        3.66492349103537       -7.35967120748195
H            5.87665293688449        2.93771027017840       -5.07403344421623
H            5.90583626359702        1.23692864286421       -5.56569320448147
H            2.82342519580054        4.16414841769574       -3.30019718254560
H            4.12281617327402        4.07724269247108       -2.10686759337232
H            4.51419935261946        4.07724011662095       -3.83828968435554
H            0.35788464230348       -0.69555810597935        0.92896653620778
H           -1.01940307950332        0.29586288517780        1.43313653755758
H           -0.33595167310510       -0.51436990475525       -1.43190681184230
H           -1.46666143031372       -2.25201549485458        0.06593600247235
H           -2.46777440373605       -1.71989314419836       -1.31441578766687
H           -4.32329429972261       -0.21965715361021       -0.87856559723895
H           -4.49002344670092        0.49891979706153        0.74687043124841
H           -2.46573926639763        1.76949842633458        0.52465274878051
H           -3.37782441149809        2.01991594495594       -0.98668712649801
H            1.87327416804441        3.38396732859659        3.63936529407707
H            0.39784183329864        4.38292766842734        3.64866575067499
H            0.65925798098426        3.31648614796782        5.86970565261491
H            0.77560561918719        1.72227932384981        5.10859422920414
H           -1.64137427832729        3.59723471680361        5.00164208554439
H           -1.55205216717199        2.05956173405263        5.87809961741921
H           -5.50388500239614       -4.76345405884801        1.15423728258607
H           -4.25332113440547       -3.19559189111258       -0.26618132249521
H           -3.25947921331483       -0.77823745780861        3.09010372246293
