151
 energy: -221.325916945190 gnorm: 0.008657546116 xtb: 6.7.1 (edcfbbe)
C           -7.81204617299848       -4.32619159482599        5.51486871849211
N           -6.06492170757022       -6.46214859957176        5.00789679292448
O           -7.90316541865160       -4.97847200660326        3.14512571943967
C           -7.08061570072936       -4.43682850544861        4.17774448952939
N           -4.92297101079467       -3.69841855701782        1.59305537385780
O           -1.96895483866858        0.13339872752789        4.69145764152496
C           -8.95626262075568       -4.13472524098212        2.73197914330067
N            0.02826650091217        2.78093680384512        3.36674705246367
O            2.43477900883390       -1.95467080352182       -4.92892413710293
C           -5.88590930782822       -5.36384704626826        4.28662272999858
N            1.39896926470482        3.05738432108360        3.34896995205138
O            4.20201455728395        2.82614879361371       -2.66246844100822
C           -5.07523922871866       -7.32867822545226        5.12889281260026
N            2.11309034689279        3.62460742377478       -0.16918042458933
O            1.41856195041354        5.77465903471323       -0.17864077283715
C           -3.83178058441692       -7.14809703163961        4.54028833757212
N            2.67636788740802        4.46240545123633       -2.89764952041143
O           -1.02760813351058        3.24501515581086       -0.77957172391676
C           -3.63292310039183       -6.00238429418535        3.79415611951022
N            2.76413784615714        0.06668734552583       -5.90709236422309
O            3.28385490452986        3.38320043618581        2.16617364302991
C           -4.67261247262897       -5.08162281407337        3.64747498520553
N            7.58815035544728       -1.26040237427676       -7.21681458049266
O           -2.59542190070198        2.20168548404562        4.08882752831197
C           -4.39967351468985       -3.87735750642940        2.85344212364263
N           -2.17318717569873        0.88598213629015        0.19014303282848
C           -5.72956139345579       -4.64786418823914        0.86823503304613
C           -4.86168940430364       -5.63155538765214        0.08546658252953
C           -3.51873849690078       -2.86345864308677        3.15559384259804
C           -2.73792842902961       -2.69162263459105        4.41890706725620
C           -3.34017103539576       -1.70613221674372        5.44751259414272
C           -2.50429532253525       -1.76519802155441        6.72860272241091
C           -4.78520847500101       -2.08366223143063        5.76821413717427
C           -3.32727758550970       -0.27315012183726        4.90478256966058
C           -1.74000443341876        1.36967722327983        4.29354560556551
C           -0.24519234164235        1.61528153633556        4.19933651407293
C            2.06954681759176        3.18589976508797        2.19450994219181
C            1.24439209964045        3.20307311813039        0.90520143586393
C            2.16751507320993        4.89560741208923       -0.58307595799050
C            3.20004161381317        5.11082591143834       -1.69661750964844
C            3.55004756353085        6.59146381995962       -1.88999797062653
C            4.42449102912460        6.79438600621993       -3.12421368638717
C            4.28817678486059        7.07035567653082       -0.64010888831999
C            3.28408189871985        3.34449223096770       -3.30420696145748
C            2.83507576792923        2.62271896517241       -4.58526497813429
C            1.82506072873603        1.53212424945134       -4.20606771766020
C            1.52784387809547        0.60997456719973       -5.39259143011403
C            3.16716654924142       -1.16458647869015       -5.52788649092846
C            4.51611554022774       -1.51417089400201       -5.89305558232518
C            5.63591390489622       -1.91569087122429       -6.07933066403139
C            7.01824906206400       -2.30334795154309       -6.35255248493970
C            8.84185234828866       -1.59081547022612       -7.86379044221989
C            7.67063209635706        0.04066097128987       -6.58053335519169
C            7.74225353599569       -2.47690497344965       -4.99892058749427
C            6.97363890445584       -3.65729678085122       -7.07721003172209
C            3.65232237366657        1.08487894557933       -6.41306746654903
C            4.06475388627267        2.02116123430658       -5.27628757006683
C            1.45578851515351        5.01777025867766       -3.44827039963040
C            0.55919844140387        1.88505956545162        0.54355712385920
C           -0.28076592385057        2.03916583754625       -0.73920530944069
C           -1.22578988778655        0.83985162139377       -0.90308943281240
C           -2.98973175825137        2.08318360048582        0.09909795307081
C           -2.06538668278775        3.29520032828184        0.18801316885608
C            2.06329500272216        3.24007818507156        4.63286402513312
C            1.81302257711975        2.03473500864326        5.53626338547867
C            0.31142891912632        1.77616045360183        5.62756608975312
C           -3.47368426597387       -2.02213999127046        2.00622723896610
C           -4.35968691916830       -2.57874588899760        1.04964982158011
C           -4.53354131301985       -1.99589399567385       -0.20232512140913
C           -3.81645350302085       -0.85663151503128       -0.49377432462283
C           -2.91980558683005       -0.30633249005592        0.43500420800210
C           -2.73881927836860       -0.88737135421808        1.67147790517890
F            2.24039665495906        3.50362182602286       -5.49376654169721
H           -7.11114641119531       -4.02842546595089        6.28774572749758
H           -8.60388466296141       -3.58463453947677        5.45839947602643
H           -8.23305123745686       -5.29354434692139        5.76925056934025
H           -6.73386167494788       -3.44004466250293        3.85594819135075
H           -9.36890939450339       -4.58999988842427        1.83411581948230
H           -9.73723266193274       -4.06132885056684        3.49346375057930
H           -8.58103922124971       -3.13139257359937        2.49877488344428
H           -5.29636831136350       -8.19868818703068        5.73136981279068
H           -3.04863810959279       -7.87859646468867        4.66384940167011
H           -2.68758567312320       -5.80379124929725        3.31072229025756
H           -6.36212374530223       -5.18791102722085        1.57509458976458
H           -6.37296238555968       -4.09059331967368        0.18471476306615
H           -5.49226514711370       -6.31401542487251       -0.47623199347419
H           -4.21346279388546       -5.09872307105995       -0.60665166122870
H           -4.24148987158036       -6.21061800630802        0.76594909125176
H           -2.65023489894383       -3.66300660832008        4.90942822595628
H           -1.73498904473158       -2.34342612913748        4.16551564633594
H           -2.56007873235489       -2.75782246449507        7.16689019070168
H           -1.46343776611338       -1.53721798238272        6.51577107379407
H           -2.87539470001421       -1.04685221556295        7.45584328914760
H           -5.16584301194523       -1.48276145720144        6.59073898807442
H           -5.42418987394184       -1.92602289751872        4.90363369129355
H           -4.83437510486212       -3.13328644544131        6.04938909701791
H           -3.78954524931772        0.41960588578384        5.61528023782392
H           -3.86785305363605       -0.20146408098195        3.95652750523588
H            0.22544156889692        0.74628840458007        3.72596694461353
H           -0.50047184713499        3.58094839476894        3.72171065603896
H            0.49309899580793        3.99413315586263        1.00985373153911
H            2.86216306113444        2.99480316457287       -0.42706048871265
H            4.11354824347711        4.56767181970057       -1.43078108283036
H            2.62444312962305        7.16537402457563       -1.98897453420436
H            5.31149004167182        6.16780334436452       -3.05938729340397
H            3.89247867741209        6.54406439522230       -4.03729208698813
H            4.73764562110442        7.83178611048514       -3.18079941746759
H            5.22930360404481        6.53510523943260       -0.53032375458597
H            4.49540191453133        8.13462492205259       -0.70937965160577
H            3.68781808421514        6.89216043198403        0.25083681070474
H            2.26352329899845        0.95014892582264       -3.39282504855356
H            0.89696822092061        1.98257809008257       -3.85405923474669
H            1.03311881018601        1.17113613834882       -6.18919453313601
H            0.89189436389584       -0.21693629354192       -5.07240430205206
H            9.67006454542502       -1.75232177936895       -7.15797134240842
H            8.72469198163617       -2.47343529281455       -8.48595457929529
H            9.10755152815561       -0.75546923481209       -8.50950912444103
H            8.53397945806037        0.13680679021879       -5.90619673792432
H            7.76031255758677        0.79792645432589       -7.35943384790830
H            6.76256209085652        0.23062566931056       -6.01347572174515
H            8.79636728041943       -2.68512088584331       -5.16839180456099
H            7.64903289722528       -1.58079143701554       -4.38931909133394
H            7.30378264413616       -3.30868464999631       -4.45413791291477
H            6.58848789402643       -3.53049729831819       -8.08543206234964
H            7.96539391756256       -4.10064508364981       -7.11575642709580
H            6.31429917492945       -4.33297747593915       -6.53680244337953
H            4.53111973893126        0.62109208919871       -6.85992191949499
H            3.11698273894764        1.65399306801487       -7.17888985925692
H            4.68548124656081        2.83119359910029       -5.66099568440115
H            4.63356989352856        1.47657700659809       -4.52091192777013
H            1.65888217377686        5.63934964232206       -4.32099205980187
H            0.76231311125000        4.22971809559343       -3.73292402793413
H            0.97951829211937        5.61974359216740       -2.67843869961683
H            1.30892333473039        1.11157973529923        0.37437143116949
H           -0.09814144747615        1.58155629761061        1.35496449477889
H            0.38519909063583        2.11411469195940       -1.60457601323434
H           -0.66669078233461       -0.09513797692686       -0.85567740266302
H           -1.71707227566079        0.91097470781691       -1.89099018999747
H           -3.56891438948963        2.12033996874110       -0.84295283884306
H           -3.68330214307141        2.09934365279854        0.94132618574269
H           -1.64798692361161        3.34217792727342        1.20065703430209
H           -2.60679645612022        4.21722468755227       -0.02634603112935
H            3.12542077002673        3.37374601222250        4.42480697975720
H            1.66968380945600        4.15199000043374        5.09797270196556
H            2.22609752232257        2.23389133707165        6.52405464817397
H            2.31228034882116        1.15794043893249        5.11995454770312
H           -0.18689873519607        2.62170050968214        6.10986637895755
H            0.10505890074413        0.87609703947993        6.20574304525985
H           -5.20809677930145       -2.42112779353286       -0.92963073580229
H           -3.93894205829665       -0.38084528029824       -1.45729569318925
H           -2.01958726725565       -0.45388035185562        2.34584506618089
