151
 energy: -221.316963939046 gnorm: 0.008996747612 xtb: 6.7.1 (edcfbbe)
C           -9.51428106839037       -1.90374358035857        3.66252586862546
N           -9.26840770274611       -1.64693019092647        6.41506529627498
O           -8.64882847798635       -4.03523353682172        4.50949329736875
C           -8.38717801892312       -2.63857692718684        4.38550845626451
N           -5.50470027624291       -3.91814166833766        5.45080111307601
O           -2.82442585659070        1.42996479731339        3.81091901366434
C           -8.38177447478495       -4.78540015526807        3.34592063681896
N           -0.10459631068938        2.13519482803389        2.54956003782629
O            4.51116314491332        3.85185498660898       -9.87574560304686
C           -8.19209449039196       -2.10453897300782        5.79315961738563
N            1.25916994234701        1.85960208830890        2.38971094160762
O            1.53742745201399        0.53236687530636       -5.48984059689118
C           -9.14811978212602       -1.15267567413512        7.63569418136179
N            1.23525010021712       -0.25812993739726       -0.55491885337063
O            0.33119134448148        1.27131109443026       -1.93065523948800
C           -7.93708068238298       -1.06623251420272        8.30449534708476
N            2.56801938440601        0.92401544407761       -3.53323353114184
O            1.43205100337542       -2.77618432612701        1.09248344567305
C           -6.80913553979654       -1.54795659976208        7.66492184333267
N            4.42081433133411        3.73453953088528       -7.61037148825777
O            2.88750474000534        0.83097403069687        1.23274917389674
C           -6.92232064616160       -2.09568841605356        6.38918137336030
N            9.62003998409219        3.53015814146057      -10.14583055193115
O           -2.29686318100859        3.56311590106640        4.21176133389929
C           -5.72169743596686       -2.58033878384206        5.70067675130560
N           -0.68018307589774       -3.50285692793196        2.79039031852973
C           -6.19255208849357       -5.00551071779580        6.09922611490932
C           -5.56814679824427       -5.31698029070357        7.45900097204101
C           -4.68460263710308       -1.82639362727807        5.20682605736983
C           -4.50075890991727       -0.34612642227785        5.24783960019698
C           -5.02521451148481        0.41994287721071        4.00623531581527
C           -6.49826983908023        0.78150146245678        4.20058069004909
C           -4.86287085465969       -0.38494951191352        2.71580350552498
C           -4.22887895802848        1.72679624067807        3.87194066012214
C           -1.98020928881186        2.41386045192209        4.00913719542192
C           -0.53242905667935        1.93902576573677        3.93956736424631
C            1.69228434559443        1.00932859969209        1.44651917124822
C            0.61675104610727        0.27594284853048        0.63819724594407
C            1.08650334638732        0.32080624272473       -1.74766719811519
C            1.88781837023051       -0.22738223219440       -2.93833790860585
C            2.86292641220536       -1.39916688810567       -2.72099051703000
C            3.54646988556539       -1.71762451088525       -4.05422174138152
C            2.13067086131175       -2.65120487262411       -2.21845835943362
C            2.29801253701645        1.21719395211742       -4.81051415988162
C            2.96759828828626        2.44026831633350       -5.47860631846707
C            2.35007869062934        2.66024934217035       -6.86153160282214
C            2.98266224316251        3.86535009355601       -7.55294557273787
C            5.07685700124578        3.77064135578489       -8.78269710274613
C            6.51543326240884        3.76038778288828       -8.69932381710098
C            7.70918883988582        3.87833808386879       -8.80238015512458
C            9.15698170573806        4.06657962481499       -8.85982177477954
C           11.05647643771732        3.38673371454960      -10.27202712701218
C            9.05335574453070        4.21412067507957      -11.29253704184308
C            9.41088001516623        5.58215447444452       -8.67550139540253
C            9.78747777491003        3.29608605863295       -7.69126681807597
C            5.04964869618860        3.55503372502950       -6.32573331470878
C            4.48665423735747        2.31446052521715       -5.62222864143063
C            3.48389108439392        1.62875168937673       -2.65763035267478
C           -0.05101766647280       -0.83074658190216        1.46471712663324
C            0.94591627909576       -1.84404936751828        2.05335563538684
C            0.34440278032496       -2.59820537935426        3.25021989020119
C           -0.11429242132705       -4.50201377813495        1.92028387503085
C            0.49385842859417       -3.77448986582781        0.71718911479055
C            2.17597714424905        2.59187863708145        3.25035588369482
C            1.80781201572776        2.33415328389221        4.71018017579642
C            0.34356906244216        2.70370139661409        4.93896569096314
C           -3.76101833744130       -2.74520726201118        4.62469645593544
C           -4.29905225027624       -4.03944912821066        4.80718269748427
C           -3.62265316612748       -5.15532003205636        4.33199836629632
C           -2.41927246860437       -4.96754438747813        3.68687894786971
C           -1.86464052010239       -3.68623391176204        3.49437484940949
C           -2.54584673579735       -2.57487605507115        3.97081852145792
F            2.68179848395321        3.57567754599930       -4.69636149663964
H           -9.63961699615440       -2.29836029526487        2.65797145652560
H          -10.43730741518887       -2.02988318093481        4.21980418273787
H           -9.28093651569661       -0.84558271630709        3.59785081757215
H           -7.44119107520906       -2.51232635638703        3.83186049747502
H           -9.06132366906494       -4.52574524138683        2.52950101540396
H           -7.34742076287265       -4.63387851294303        3.01550270978158
H           -8.53114816181282       -5.82673492272347        3.62226082871912
H          -10.06380457753118       -0.79550211404101        8.08162470823818
H           -7.88059593504370       -0.63694814511635        9.29134334556732
H           -5.84054724628279       -1.51043366155565        8.14221745441826
H           -7.24448702844071       -4.73684475455886        6.21588784226492
H           -6.13182488877638       -5.88097834592927        5.44892814319761
H           -5.67344457880299       -4.46294937113039        8.12511473385628
H           -6.06254285355550       -6.17375383881914        7.90972887316985
H           -4.50870173829093       -5.54038159229467        7.34237023984695
H           -4.99074604017146        0.06418974046665        6.13410632439071
H           -3.42899139297241       -0.16048549479649        5.33421432927186
H           -6.87947179810230        1.31891792904410        3.33576876844244
H           -7.08435798562525       -0.12285354630058        4.33423534603192
H           -6.63319849367884        1.40754275380527        5.07993238909177
H           -3.81397342640620       -0.57416059332306        2.51097605245876
H           -5.37542180280030       -1.33947742119065        2.79504353424232
H           -5.28674139854944        0.16580396614075        1.87886928054624
H           -4.40286778135236        2.39318012207064        4.72260909414430
H           -4.50732141471714        2.25782175673389        2.95708278639441
H           -0.49926230257085        0.86409080076341        4.14446565310987
H           -0.27880662356214        3.10852682475457        2.28762426828827
H           -0.13758341438996        1.00101601721983        0.31660953089956
H            1.91865677282806       -0.98499959140391       -0.40594952259386
H            1.13946232536423       -0.53534547385171       -3.68104074194187
H            3.62888572823526       -1.10128685067901       -1.99901127077118
H            4.10152915645682       -0.86563914871683       -4.43844514715482
H            4.23761005138192       -2.54645811541151       -3.93031858975204
H            2.80111028611854       -1.99052065251791       -4.79869801363778
H            1.07770387884535       -2.61581506480300       -2.48576434740817
H            2.56062752999469       -3.53783100748673       -2.67618081156439
H            2.21272003812251       -2.76988630393339       -1.14331102180394
H            2.50680083572250        1.75449836334249       -7.44662704965232
H            1.27621989920236        2.81140091032725       -6.75805328544615
H            2.73556437615728        4.77461721442335       -6.99389115569514
H            2.61072245643600        3.95897419388996       -8.57425439657489
H           11.61259029860696        4.31465361747890      -10.08203097479544
H           11.41343923412899        2.61482817407306       -9.59757877083773
H           11.27327233072035        3.07002411035470      -11.28723553557104
H            7.97946709549279        4.33932717003244      -11.14993887878433
H            9.50601123001618        5.20025435182581      -11.47808858877572
H            9.20920947490007        3.59370010799802      -12.17524868152682
H            8.75984779559843        6.16327016157992       -9.32486782166567
H            9.21112921483206        5.86506487417300       -7.64599574015031
H           10.44622191573850        5.81850633412394       -8.90822455993414
H           10.82990562229215        3.57373809903846       -7.57319225652904
H            9.26017094171301        3.53769834291321       -6.77378025404558
H            9.71428509776400        2.22730499060878       -7.86588781037134
H            6.12517371613626        3.45086619885927       -6.46659773700761
H            4.84857617039637        4.43702935187615       -5.70785081163644
H            4.96593770971883        2.21936280794076       -4.65217892180564
H            4.69219005419141        1.42161816362263       -6.21234180805676
H            3.51920334290109        2.68695136943400       -2.89258038088734
H            3.13618395938203        1.53077689794169       -1.63072681321299
H            4.48350439759641        1.19424020191752       -2.72056134869609
H           -0.60109174655857       -0.35392694227643        2.27289763257610
H           -0.77231346991908       -1.34840009035089        0.83414699742334
H            1.84910219817448       -1.31719513916640        2.38308528987361
H           -0.05855171603748       -1.89812092364772        3.97795216912609
H            1.15621533723729       -3.16954837879309        3.73235034884097
H            0.66684165113781       -5.08551617550472        2.43293294194455
H           -0.88688170513611       -5.17533594853602        1.55701055984087
H           -0.31400832784574       -3.32877984430762        0.12373871606068
H            1.05139755473842       -4.47172204257383        0.09114831822869
H            3.18371764314945        2.24778316696786        3.01957524774706
H            2.09831690080406        3.66093503580209        3.02388310074104
H            2.45231824851370        2.92617417802660        5.35836712777004
H            1.96087128831585        1.27818856447551        4.94073692139885
H            0.18966199769968        3.77556487632595        4.79121315442055
H            0.03802591115099        2.45672478734880        5.95584947045141
H           -4.01523176033625       -6.15306747710758        4.46356652033366
H           -1.88501826303252       -5.83622327330961        3.33618126379824
H           -2.15484028031470       -1.58122742843343        3.82058217061310
