151
 energy: -221.323498144542 gnorm: 0.007415990656 xtb: 6.7.1 (edcfbbe)
C           -9.30095456031999       -3.28721031473855        5.71714440367834
N           -7.78751741063768       -5.18298174452141        7.21938419339159
O           -8.70961133121869       -5.34121994586222        4.48685355334682
C           -8.20586142501761       -4.15191715445030        5.09216838244379
N           -5.30715995831409       -4.38276526379860        3.59626245324991
O           -3.16993108589088        0.79065662670320        4.99556524569560
C           -9.62064841889973       -5.13495093443502        3.42815527290865
N           -0.82363773724204        2.67648689588460        3.05416337076356
O            4.28773132088445       -0.50729206231470       -9.42459288515806
C           -7.23184318274486       -4.62047726799490        6.15586959618138
N            0.52793333856215        3.02076874379509        3.15341451840515
O            3.52906633435828        0.71504795093888       -3.66205091858717
C           -7.01924062482374       -5.62795019880059        8.19718596914823
N            1.99520112121874        1.95673614842907       -0.03221623367733
O            1.75709262996919        3.96570952710770       -1.02380497738846
C           -5.63699501117371       -5.52208737029664        8.18062570306101
N            3.45061736124314        2.90072760465122       -3.11660865525754
O           -1.25522336652457        1.33831112837095       -0.83741140850556
C           -5.04677956817966       -4.93643625919653        7.07583639396253
N            4.28766499805733        1.36504352215268       -8.14028204726050
O            2.60311993521977        3.00534027166768        2.30623091315616
C           -5.84145412003778       -4.47707591058995        6.02465558603230
N            9.42241247552087        1.95305954729488       -9.14931005101547
O           -3.52189017192925        2.34315174272242        3.41608412251223
C           -5.19371823151196       -3.85620735349704        4.86575127553675
N           -2.36266319401547       -0.59631979762931        0.85681555121005
C           -5.83157890861656       -5.68070582181967        3.24828836077172
C           -4.71094714990463       -6.71085057134775        3.10889340552683
C           -4.40679678928732       -2.72411060027516        4.84376710216539
C           -4.02243000193101       -1.84826283783768        5.99420432951149
C           -4.84368401134598       -0.54719593514189        6.15853869594009
C           -4.46247844860478        0.10269875307508        7.49154093521871
C           -6.33836454852526       -0.86726123255159        6.15251969528830
C           -4.56612930880471        0.44968993293524        5.02487879295417
C           -2.78145005737102        1.72513579743602        4.14835721037400
C           -1.28129406372054        1.95878407166362        4.24208493863401
C            1.41589885047836        2.72115179827764        2.19060037126051
C            0.89208438162555        2.09103982536551        0.89574969959962
C            2.36538526526629        2.91321160234809       -0.89267904420236
C            3.60792479355668        2.53784837486809       -1.71238505624117
C            4.89262821410342        3.13556873266390       -1.09439084739017
C            6.06244521389365        2.97543452638048       -2.06753431729133
C            5.20957445522352        2.42482047950716        0.21974871860137
C            3.43489969765874        1.89717787015558       -4.00222145836522
C            3.43053381660633        2.18287776265052       -5.51540458845601
C            2.74934904113030        1.03918781050562       -6.27073403055279
C            2.89417001847759        1.23668021273989       -7.78022932862811
C            4.88691531267603        0.44458345226610       -8.91477907483653
C            6.29748916992069        0.63088256227716       -9.12617338809524
C            7.48616782717971        0.60766358025348       -9.31698680505409
C            8.93464271342652        0.61296904257781       -9.49769953119182
C            8.85975942359370        3.01201651038469       -9.96528953850194
C           10.86229761517789        2.09030474980275       -9.07161394640915
C            9.47643227693705       -0.43414538779422       -8.50950787229206
C            9.24599777643308        0.16855375758191      -10.94212411024203
C            4.96542612706006        2.46537477851194       -7.49659757965685
C            4.88797966173254        2.32010698742450       -5.97393039453188
C            3.27528639542716        4.30192987584768       -3.44247510507838
C            0.21540933707793        0.73063590895803        1.04678223086223
C           -0.45192037944580        0.31028114105676       -0.27626334914444
C           -1.29856714295140       -0.95247283620425       -0.05679893111153
C           -3.23080093397051        0.39744117186330        0.25116651604973
C           -2.40254876604422        1.64274254042572       -0.06035927746294
C            0.93388787195317        3.76782920860910        4.33793854798557
C            0.52270160598866        3.01204254321897        5.59810975511887
C           -0.97524737653553        2.72136173512483        5.54463753979738
C           -4.01019675534163       -2.54348600181912        3.48698604421914
C           -4.58922137497490       -3.59843562148145        2.73987547939792
C           -4.40608514103860       -3.69426891073698        1.36394044239304
C           -3.66740990831125       -2.71511000554610        0.73599265370286
C           -3.08178774376533       -1.66944798518106        1.46484024221471
C           -3.22232926202157       -1.59962292180230        2.83380199212809
F            2.73894628316073        3.35286102667678       -5.83973541168203
H           -9.90177914655100       -3.89875856902855        6.38452759478458
H           -8.84281457018385       -2.48401890407680        6.28561752800210
H           -9.93235369400888       -2.85228813023944        4.94692914590898
H           -7.66955606677075       -3.56490018455925        4.32732424182829
H          -10.58543767146676       -4.77054895421678        3.79121622967047
H           -9.21542865208585       -4.42886508792736        2.69472629863978
H           -9.75753078122110       -6.10905706758889        2.96233921654245
H           -7.54387917736599       -6.08146072337144        9.02733356368383
H           -5.04377818442952       -5.89080595319273        9.00113617763331
H           -3.97220095574052       -4.84606449466275        7.00687451125409
H           -6.53769443943405       -5.99824289846186        4.01675580771297
H           -6.37330397699700       -5.58871902694705        2.30290215439045
H           -5.13203004650561       -7.68026573769727        2.86227319538455
H           -4.01735443555644       -6.41671699390745        2.32386172179457
H           -4.15893619685624       -6.79622402545811        4.04285024802006
H           -4.13594033868499       -2.41543323844404        6.91904391285697
H           -2.97213064745786       -1.57261686715271        5.88552947082474
H           -4.71691053059819       -0.55474180162156        8.31846642604977
H           -3.39529177672774        0.30518841254740        7.52252007772771
H           -4.99723969530486        1.04025155795155        7.62248103197585
H           -6.55623031884060       -1.61125127111380        6.91545191970800
H           -6.92416248861868        0.02494396479067        6.35853516811544
H           -6.64173580425482       -1.26590596669985        5.18765482965054
H           -5.14137460437257        1.36952024322666        5.17330861058967
H           -4.84020643835345        0.02850914136896        4.05333962124057
H           -0.77114485172021        0.98922484156106        4.26594173459154
H           -1.40180770849934        3.50584289567823        2.91390402969524
H            0.19140030287890        2.80692863631406        0.45039450866163
H            2.59880155815276        1.16135115299211        0.10973569810569
H            3.70578817641544        1.44732273609882       -1.71286749180280
H            4.73585210873598        4.19683476751967       -0.88375407826971
H            5.95796315167861        3.63698414851002       -2.92201441225897
H            6.99582672681310        3.21083213503219       -1.56248748952740
H            6.11257953260205        1.94902924498617       -2.42749892729391
H            4.41434856346216        2.56371829305843        0.94928045223890
H            5.35807438552156        1.36083322670588        0.04559022382137
H            6.12438493914267        2.82964940266975        0.64162497848606
H            3.20972389906954        0.10287065065901       -5.95724085894728
H            1.69268477408324        1.01120709824463       -6.00299340834535
H            2.36422867956497        2.14577078132141       -8.08357327158054
H            2.48375374034067        0.38044594181078       -8.31767084408526
H            9.33883190075445        3.09331302292500      -10.95285092378615
H            7.79423512717731        2.84401933424417      -10.10526465922788
H            8.99889456395158        3.95743334382324       -9.44119914928964
H           11.36253382058740        1.97788464608182      -10.04565817452144
H           11.07895901129375        3.08921589163613       -8.69591285901168
H           11.27333288668888        1.36889947628992       -8.37253461332243
H            9.38204957949375       -0.06460241509560       -7.49272043038220
H            8.89734188840336       -1.34880575132003       -8.60413918383806
H           10.51592897736732       -0.66416261055925       -8.72048786546950
H            8.80003333380802        0.85213667570334      -11.66053649882193
H           10.32139465355363        0.13611269429469      -11.09854389673076
H            8.83657886217729       -0.82297733750157      -11.11279215224559
H            6.00611639882866        2.48374558351523       -7.81676075017227
H            4.47387117285367        3.39741560714027       -7.79452365884021
H            5.35352008899801        3.18560823102977       -5.50569681335884
H            5.41551831981638        1.42156256059551       -5.65548854282836
H            3.96033374982628        4.61401656683738       -4.22862537709273
H            2.25178409057043        4.49894684789908       -3.76179586507759
H            3.46137761655942        4.89047482258636       -2.54929875148772
H            0.95604023799897       -0.02095520300002        1.31431093821054
H           -0.54752223736401        0.77216885412646        1.81760472151994
H            0.30782821256488        0.12719026437832       -1.04322757503070
H           -0.69253850283371       -1.74227763782178        0.39051698459716
H           -1.67304290982495       -1.29738554539081       -1.03817814955307
H           -3.69656132125501        0.01790242939941       -0.67722960790746
H           -4.01792656612612        0.66234072572963        0.95918956709578
H           -2.11555836925584        2.12354961126128        0.88212381563389
H           -2.97800519569288        2.34628072758085       -0.66449386978846
H            2.01388414387061        3.89793709065796        4.27904285214681
H            0.45187452152783        4.75251511148877        4.31124351056699
H            0.76163722778970        3.61288110600129        6.47426468523664
H            1.07931638290686        2.07606286250778        5.65578129696989
H           -1.53720749683208        3.65845434074705        5.55161869485250
H           -1.28527812196550        2.12349736230810        6.39956734185717
H           -4.84140305107580       -4.49830092883623        0.79110178324656
H           -3.53788774932138       -2.75282220683486       -0.33539911387686
H           -2.71911777748275       -0.81330911658557        3.36940270111101
