151
 energy: -221.319820740372 gnorm: 0.005271065581 xtb: 6.7.1 (edcfbbe)
C           -9.00001354570765       -3.96092153927345        5.64399042912370
N           -7.18644451297355       -5.61630015188250        6.99658371134803
O           -8.00137403835136       -5.55764613053014        4.07554052443730
C           -7.73455504390799       -4.45867270971799        4.94753255668789
N           -4.78504399842695       -4.50915952848248        3.40134221447219
O           -3.51331074650687        0.96722733484398        4.81233095985384
C           -8.59349393838106       -5.19472920867446        2.84866122373892
N           -1.43090075592560        3.22282283321080        3.01525924499026
O            3.87513404538575       -0.31949752891424       -9.11049785121345
C           -6.71350496671602       -4.93745521230932        5.96237506204158
N           -0.18189724992369        3.82179495717038        3.20101926516273
O            3.21164801737632        1.12608042079461       -3.14470849097877
C           -6.35172765779116       -6.04637976687373        7.92649543760118
N            1.84063602193678        2.61244349970114        0.40095046739940
O            1.44839905673440        4.33333508214661       -0.99707615810811
C           -4.98832565442829       -5.79924948201374        7.89525397238127
N            3.43441569235786        3.32917688622401       -2.72226847205562
O           -0.78559074357045        1.32489427868460       -0.95333619697353
C           -4.48386292977510       -5.09487621931163        6.81741917051013
N            4.32523236907996        1.29738739816170       -7.58514948993123
O            1.98672577910267        3.97935571399459        2.64636422699419
C           -5.34670175408674       -4.66262065464536        5.81131408038866
N            8.82673379189682       -0.06680898409313      -10.85695719162457
O           -4.08092729467417        2.50280235592110        3.27981399864324
C           -4.79082262274393       -3.94557772790311        4.65856369970121
N           -2.15585036843717       -0.47944069081813        0.68550881943274
C           -5.05366118831135       -5.89686896646222        3.11390495495046
C           -3.85218009949455       -6.77213054798444        3.46805852057166
C           -4.18403503636662       -2.71054023387650        4.63541725065046
C           -3.97173467219959       -1.77935894197625        5.78533982116598
C           -4.99075321179571       -0.62365911753208        5.91464416012779
C           -4.75706107179269        0.08179592874853        7.25315486602756
C           -6.42037980231598       -1.15988635547980        5.86129746674040
C           -4.82883748019243        0.38875943581776        4.77409145413281
C           -3.27122573115417        1.99579435425627        4.02515519878892
C           -1.85444986012815        2.51047964355510        4.21803418805943
C            0.86568964190437        3.53570183397192        2.41276068787638
C            0.60645006094670        2.71124720272200        1.14566197165829
C            2.16194685138251        3.41337934288677       -0.61918930960411
C            3.48591800594388        3.03317704035405       -1.29358424499448
C            4.71647555249801        3.68000259654157       -0.61898720299279
C            5.97794899659382        3.30741713644116       -1.39753815739614
C            4.84676646571202        3.21838429133441        0.83113793436616
C            3.32883667341689        2.28462229510228       -3.55412934560952
C            3.52510971249428        2.45035589157696       -5.07158533617285
C            2.60548377727111        1.50536159267890       -5.84758510358051
C            2.92583591458488        1.57173676505973       -7.33905454271897
C            4.68769834033819        0.37341773945729       -8.49253244205590
C            6.10277542386268        0.23837134311026       -8.72808430341239
C            7.23354667602512        0.04552719698780       -9.09861546391581
C            8.65438771288379       -0.11593010878206       -9.39854470328361
C           10.19459109733796       -0.20361773513582      -11.31318125498301
C            8.19054937461611        1.06587826547486      -11.49552757458286
C            9.42039851846516        0.97810461271099       -8.62451191915073
C            9.05919991744274       -1.50541704625167       -8.87440565844008
C            5.24369434522734        2.16772851275083       -6.88978701698951
C            4.99177977926475        2.12016112593206       -5.38143113173581
C            3.37553445902568        4.72401828332088       -3.11368866940564
C            0.06594091223739        1.29911649317114        1.36612394658904
C           -0.09159777466722        0.56058541090830        0.02328225429693
C           -0.80391782668182       -0.77619552858361        0.25689742241720
C           -2.87301092633155        0.19578231431386       -0.37735143038767
C           -2.15703671201225        1.51932990299841       -0.65072589503383
C           -0.05492950811143        4.72888015144055        4.33279748884670
C           -0.43361691363186        4.00739494906136        5.62362144815846
C           -1.82855684592010        3.40333867770308        5.47441928071294
C           -3.76681204279781       -2.50084576659538        3.28837438817855
C           -4.15788179370614       -3.64570518191825        2.54909348543729
C           -3.90683877313279       -3.74806181196435        1.18472284849034
C           -3.26248065514733       -2.70179527959042        0.56337308084720
C           -2.84331379156026       -1.57663368908349        1.28735989254838
C           -3.07750065075857       -1.47810753396299        2.64168991572637
F            3.26572515336735        3.74248079211878       -5.53152267526129
H           -9.67297849672980       -3.49345497555146        4.93030648298612
H           -9.49691680297338       -4.80405819064400        6.11526261718747
H           -8.73747340912814       -3.23337821604440        6.40564682865059
H           -7.28582283448025       -3.64742959935859        4.35306877134126
H           -8.67173190240193       -6.11289015826209        2.27226233779576
H           -9.58945966957227       -4.76882221415222        2.98802633437492
H           -7.96571298812271       -4.47403922556774        2.31158896112552
H           -6.80752705308977       -6.60490770931583        8.73195527282428
H           -4.34336555574152       -6.15228243747091        8.68348159996240
H           -3.42714333631501       -4.88547089588971        6.73393015344516
H           -5.93050035343448       -6.21876252659336        3.67926175329051
H           -5.27987216288573       -5.98261698287417        2.04987139878943
H           -4.03243798390286       -7.79463732032927        3.15158646317675
H           -2.95662179541740       -6.40184071827384        2.97364828737020
H           -3.68519117438198       -6.76479071238865        4.54268870957351
H           -4.01246484682978       -2.35543496269661        6.71172246645844
H           -2.97671803786800       -1.33938942842565        5.69747893434806
H           -5.41873330159490        0.93868577298510        7.35181283464269
H           -4.95490258038646       -0.60102372813631        8.07503210958210
H           -3.72926712996392        0.42610106556607        7.32552609008638
H           -6.54705127425424       -1.95377839430769        6.59354579918493
H           -7.13582883651061       -0.37003110205605        6.07555036405250
H           -6.63936868874729       -1.56193247902425        4.87544714273245
H           -5.56330029997398        1.19556143838004        4.86380014997277
H           -4.96506097424259       -0.09122050385779        3.80085326409656
H           -1.17965209846150        1.66048741970047        4.36260637396900
H           -2.13605691036529        3.91796306463292        2.76650118325389
H           -0.08747891722621        3.28903216833943        0.52363012180434
H            2.50015461697316        1.91793704250265        0.71600149677606
H            3.59048992377226        1.94419546054458       -1.23045064616790
H            4.59791871594223        4.76713993269183       -0.62069305357777
H            5.96030037763851        3.72365294745493       -2.39997940163191
H            6.85530274910781        3.68984020660429       -0.88440039327888
H            6.06418748252094        2.22596954522493       -1.47610999759543
H            4.91451176634317        2.13382886542882        0.88191839342006
H            5.75546463706253        3.63206670769720        1.26001767074813
H            4.00966047011095        3.55840940866767        1.43617592611232
H            2.74322407784457        0.49725544801422       -5.45808350808938
H            1.56764214609850        1.79946806991051       -5.68482709778617
H            2.69017082909609        2.57427722601374       -7.71608964553423
H            2.33960810302595        0.83633196861631       -7.89240917883298
H           10.17060555292317       -0.39347000297183      -12.38653725628842
H           10.80052518993060        0.69843378787048      -11.14107626352058
H           10.67091447194386       -1.05177444907743      -10.83166149581922
H            8.25445293333507        0.92896945280407      -12.57364415845972
H            7.13980434713250        1.10351209708952      -11.21337445973128
H            8.66085124213206        2.02941051068662      -11.24531699281737
H            9.21738320199213        0.88011212553483       -7.56291632453156
H           10.48852064536136        0.87089111288218       -8.78807438156921
H            9.10694331164946        1.96689340247773       -8.94808315030956
H           10.13911262495617       -1.59149234353105       -8.79890308061437
H            8.63300830362682       -1.66237643877149       -7.88693004186418
H            8.68045160084013       -2.27109386437438       -9.54509682819937
H            6.26530250879664        1.85655382461635       -7.10917053619223
H            5.09566156171639        3.19502864776454       -7.24357630643390
H            5.64560291009010        2.83578861197221       -4.88271265078059
H            5.19376853923908        1.12333600291288       -4.98956058452616
H            3.28771712538777        5.32520426475822       -2.21738587145319
H            4.26562162817427        5.01988555809332       -3.66818090540188
H            2.49392129860927        4.91683516522813       -3.72099170931419
H            0.75541187666440        0.73303619455108        1.99168698517631
H           -0.90549740066530        1.34349899601423        1.85144553850870
H            0.88554909593943        0.38579722138527       -0.43932151312554
H           -0.29637055669337       -1.34109338485720        1.03899931462830
H           -0.78170954270535       -1.36278778598075       -0.67886439842019
H           -2.90549928902969       -0.40072890016469       -1.30713699439047
H           -3.89334348535111        0.39684250524069       -0.04711680557069
H           -2.26899710984860        2.17342241551383        0.22269716646848
H           -2.57514339328832        2.01425763238810       -1.52851930897751
H            0.97678086422944        5.07855360040277        4.35439556982702
H           -0.72218282931774        5.58143726067543        4.16518112674008
H           -0.41305108494409        4.71313143164592        6.45257622006603
H            0.29193103837987        3.21759645668256        5.82102025995527
H           -2.57040381073088        4.19813037035606        5.36235614975630
H           -2.08727871553792        2.80875617025900        6.34907917982476
H           -4.20748291813012       -4.61724486911188        0.62075084284896
H           -3.06222875527883       -2.75133146547001       -0.49727484898568
H           -2.71169740824488       -0.61349509597378        3.16989938316973
