151
 energy: -221.329990490968 gnorm: 0.009278912693 xtb: 6.7.1 (edcfbbe)
C           -7.20889619611810       -4.38317068036339        3.39504095818771
N           -5.45578101817836       -6.50674882329530        4.01863535800562
O           -6.44791330688193       -5.56631432522044        1.38155387187105
C           -6.04173097248052       -4.74773059539823        2.47696566872445
N           -3.17860510726519       -4.26658304057025        0.87591793487308
O           -1.70084875004417        0.25616128606960        4.05925919447798
C           -7.14340070268175       -4.88084917454948        0.36304324669627
N            0.13672428880916        3.16691741723229        3.20819814178039
O            0.04359033155213       -0.50904693873307       -4.42406302865297
C           -4.99490967714650       -5.54372640597405        3.23525630100499
N            1.41845810075439        3.68196538636907        3.42379050280900
O            3.89955582171057        3.68701107722333       -3.22784679233943
C           -4.60442418657457       -7.24512373293140        4.70842840446266
N            2.57097286333443        4.25717766978905        0.02065236096789
O            1.49997534195367        6.23764801520225       -0.08140456606008
C           -3.23263647713296       -7.05402008553136        4.67285844191966
N            2.48953404732186        5.40833805862941       -2.88087725794181
O            0.20781079407073        2.97960826808093       -1.34048639962253
C           -2.74156327772450       -6.05116768781742        3.85712253167728
N            1.53510270153373        1.09617100970555       -5.02564580401598
O            3.41316437084030        4.27261451958532        2.56820426466275
C           -3.62423911649554       -5.27598833520443        3.10554690115212
N            3.84680995772086       -4.09075285571077       -4.09325849268161
O           -2.44738037006362        2.32840508085748        3.64712872292915
C           -3.08932360941467       -4.21146236987565        2.24962231364791
N           -0.77585883190012        0.56116395610223       -0.32449823368245
C           -3.57350604857395       -5.41502877146270        0.09933544708684
C           -2.37539771148246       -6.30666508308891       -0.22198644418879
C           -2.44487108823318       -3.06005343772163        2.64350486268517
C           -2.10231222858807       -2.64789710768208        4.04051715667704
C           -3.06579621489982       -1.64502064401769        4.71486412123215
C           -2.64020251537490       -1.46394428850813        6.17404428869945
C           -4.50164186111956       -2.16294027918579        4.65947364111597
C           -3.02894830444019       -0.28598525965322        4.00655689813400
C           -1.54628053854379        1.54754704193064        3.85548134568642
C           -0.08597632949928        1.95001616423961        3.98178800100721
C            2.26290284896532        3.88504249667443        2.40183779432604
C            1.68385602648711        3.67394538298649        0.99935983623604
C            2.36938819222778        5.47669931589245       -0.48545319513049
C            3.25398281711141        5.79405665421705       -1.69433984817739
C            3.72247112433488        7.25539280087624       -1.70375657364333
C            4.40702385161069        7.59237918298667       -3.02398583561750
C            4.67561246790377        7.45234361123870       -0.52525359724014
C            2.91257544478841        4.34082699516203       -3.56734195557542
C            2.16339319312724        3.93357966448947       -4.85384653841728
C            0.76739241332825        3.36553274469573       -4.55591393991399
C            0.50974817334004        2.07125153205257       -5.32336044183841
C            1.20870247191903       -0.12594312719167       -4.57536099152693
C            2.32622035721581       -0.98484086839639       -4.28426432010859
C            3.16156328909728       -1.81799645933799       -4.04364180700232
C            4.25576683073931       -2.73009641025362       -3.71814614425244
C            3.37683441829866       -4.21521445987016       -5.45831268280732
C            4.81733664435445       -5.12655689288645       -3.80561417617797
C            5.53200112175781       -2.22712996461492       -4.42606302849776
C            4.43688753672030       -2.62996305639593       -2.19368720810117
C            2.91716197802580        1.53320353353207       -5.12022435674636
C            3.00477469599491        2.94937988339602       -5.67220779305444
C            1.21431330324304        6.06783214289649       -3.07815041231910
C            1.43697842638944        2.20172191059053        0.66199568271276
C            1.09166615287661        1.99311347025423       -0.82547094635974
C            0.49755200162623        0.59116046894745       -1.01567116575445
C           -1.69194587491434        1.50002334876182       -0.95025208516960
C           -1.10357677516827        2.90027341508670       -0.80070006708261
C            1.80192632528211        3.94025150185076        4.80368547035620
C            1.66524720444867        2.65748963177279        5.61886289232129
C            0.24008694250800        2.12590357637754        5.47827509183996
C           -2.11491837014843       -2.36202899678966        1.44450780829224
C           -2.57547814989424       -3.15392762912407        0.36236874870559
C           -2.38753121473128       -2.75658562606677       -0.95777119070625
C           -1.77522101580521       -1.54510800511602       -1.19272089116703
C           -1.34067219429999       -0.73900887063264       -0.13034246099108
C           -1.47918281733778       -1.15213170009965        1.17714079747695
F            2.02773848059238        5.08408892986661       -5.65714411703767
H           -7.69164963012000       -5.29726364075620        3.72985380988304
H           -6.83621790492548       -3.83669733863262        4.25532265925904
H           -7.92917120339071       -3.76043209148617        2.87063877313482
H           -5.57782637463063       -3.83172712981041        2.07660983609952
H           -7.34603560942393       -5.62520937049513       -0.40616854281394
H           -8.08967511022910       -4.46582723520363        0.72300852869857
H           -6.52803967624939       -4.07175971468608       -0.05509178027859
H           -5.05140830545891       -8.01741628095418        5.31867088701904
H           -2.57171292529869       -7.67197452729498        5.25841604889561
H           -1.68011196941401       -5.86642471729183        3.78223893853315
H           -4.32462786238682       -5.98002942631501        0.65546583525836
H           -4.03077921555442       -5.05763754810175       -0.82767631405301
H           -1.60771736841169       -5.73426081247034       -0.73760944772351
H           -1.95135215028390       -6.71604014830293        0.69248303746684
H           -2.68816499536261       -7.12802800986062       -0.85970258230922
H           -2.07449244773883       -3.54031963843070        4.66835688144486
H           -1.10627148945740       -2.20147076966263        4.03214132652444
H           -2.77113856430934       -2.39004775153488        6.72061754381562
H           -1.59921496933110       -1.17109924710092        6.23367532684855
H           -3.24069228788938       -0.69638835815300        6.65192058149100
H           -4.83145682234490       -2.25516903254614        3.62942061681686
H           -4.56210462798065       -3.14007106262537        5.13037547988766
H           -5.17350389057764       -1.48405522467849        5.17845624176154
H           -3.71203363236158        0.42355300243815        4.48378404641867
H           -3.31594137156938       -0.38810459932145        2.95598522215357
H            0.54400108508998        1.15801067229013        3.56398551728805
H           -0.57687100916393        3.85585056424592        3.45642286482441
H            0.75119022213505        4.24592884424109        0.94372767647068
H            3.36180614394265        3.70955825368189       -0.28018259719312
H            4.13706383776319        5.14761474400778       -1.68434698525728
H            2.86012015188131        7.91139753777941       -1.55461513438994
H            4.80303072986018        8.60285892185161       -2.99084571625991
H            5.22849133329945        6.90302066885774       -3.20684498316746
H            3.70919500453078        7.52105156583086       -3.85513881619270
H            5.53287690791381        6.78583003664048       -0.61355188743271
H            5.03442957495260        8.47812973864346       -0.49802519549165
H            4.16572722869318        7.23797095634715        0.41242183238789
H            0.66539552344467        3.17736752840160       -3.48550438213857
H            0.01938056562460        4.10183601883240       -4.84781849757352
H            0.48135151890490        2.25908313974027       -6.40113203225805
H           -0.44683277535320        1.63672456158318       -5.02378182971737
H            2.84109299926235       -5.16060504018202       -5.54968141763424
H            2.68703125738203       -3.40512938395057       -5.68664209776615
H            4.19106918347245       -4.21110666602020       -6.20010866966452
H            4.33679243941217       -6.08921587878598       -3.98220246347077
H            5.71255551152858       -5.07135270445753       -4.44402567611689
H            5.11678098730231       -5.08686687005776       -2.76232767314294
H            5.44195346252557       -2.33801621187472       -5.50511636564642
H            5.68557861844440       -1.17495880752247       -4.19931822843497
H            6.39605887391252       -2.79002291702340       -4.08017264716451
H            5.30607956880433       -3.20047985562699       -1.86587558863013
H            4.58793887213912       -1.58494008975893       -1.91872998064560
H            3.54598731981960       -3.00737886486726       -1.69126621698603
H            3.38405532105127        1.50779846180734       -4.12918378176183
H            3.47104388192011        0.85353048356031       -5.77539884430830
H            2.65346095280740        2.98623550743096       -6.70352534730463
H            4.04734182558508        3.26808467118832       -5.65116540388228
H            1.04917301413521        6.30570411763469       -4.12549877264932
H            0.40413634134110        5.44013968224579       -2.70137414378629
H            1.21351607791441        6.98979409049320       -2.50458862276460
H            2.32914953493379        1.61637091060544        0.88558716467147
H            0.60601547009589        1.83356911156252        1.26026465214649
H            1.99017444762283        2.10024138883205       -1.44441191949707
H            1.16053088828498       -0.15893159520394       -0.58153909814487
H            0.38812506085608        0.37911953801221       -2.09330106311997
H           -1.84726956056607        1.27382203499759       -2.02079281223915
H           -2.65303309570611        1.45281752554776       -0.43451304186900
H           -1.09667913675401        3.17579627429803        0.26006105378360
H           -1.69069610006252        3.63093089659215       -1.35934311246004
H            2.82668119240158        4.30863908101380        4.78952522173207
H            1.14226780197449        4.71682177951894        5.20476503715814
H            1.89034007475623        2.86332892192366        6.66426038748371
H            2.37617515971536        1.91777841853406        5.24735870433045
H           -0.46652338795877        2.83501601653472        5.91670400023458
H            0.13172221881705        1.16890656813701        5.98661794277962
H           -2.71262064763373       -3.36906608803836       -1.78503221362830
H           -1.61480792220448       -1.21555984009925       -2.20990897636574
H           -1.09704664693819       -0.52563290302341        1.96517701181122
