151
 energy: -221.310300886161 gnorm: 0.007842556064 xtb: 6.7.1 (edcfbbe)
C           -8.55051747755144       -3.93296193477792        5.14628949052237
N           -6.48371854959400       -5.40031604406194        6.31445721184811
O           -7.54551734689242       -5.35599070645049        3.40983939999307
C           -7.31248085665059       -4.28589167390091        4.32479268483198
N           -4.37238335774056       -4.29832199116755        2.43242452096450
O           -2.87500456036401        0.91159893180163        5.67488772767323
C           -8.26397574611004       -4.98260275335794        2.25344282820801
N           -0.34552104403578        2.62350911411608        3.80630505087669
O            4.43967625800852       -2.01912874848801       -5.92834050619264
C           -6.16990994629973       -4.72836408483491        5.21732016782925
N            1.04979490709272        2.53287366819177        3.75727130021493
O            3.57346204272864        1.94020720001431       -2.24881279293655
C           -5.51713911414287       -5.81446962166982        7.11549271260738
N            1.82767085673631        2.85053612116054        0.28862579029029
O            1.24385666198055        5.03503497807587        0.34213826675155
C           -4.17398027353406       -5.56936068865063        6.87755182874412
N            2.34266867463693        3.80449513756358       -2.44681255841190
O           -0.68962554908793        2.24739844780226       -1.04470324900397
C           -3.83866396467105       -4.86564670659682        5.73498404528306
N            4.27997146391434        0.08073728600837       -5.08492267242168
O            2.91125789869819        2.11180395158893        2.57615456142902
C           -4.84525032055057       -4.43958719287531        4.87052050834687
N            7.91488439778359       -0.85141985957277       -9.53504322410273
O           -3.01082717702451        2.84935628663740        4.53373570158936
C           -4.46355891300554       -3.69243814878585        3.66419807780509
N           -2.25667744966462       -0.12921502599728       -0.51616002209362
C           -4.61523368432421       -5.69216161039788        2.15779342087802
C           -3.36152092568386       -6.53700872092127        2.37632408970241
C           -4.04108876675068       -2.38697534715834        3.58746596615514
C           -3.84714458276396       -1.42601236877737        4.71331292521184
C           -4.87296830164458       -0.27607676539386        4.86905045684187
C           -6.18791481334415       -0.81202533628235        5.43586492495184
C           -5.16792710835859        0.44654400941246        3.55317527376346
C           -4.28314470601959        0.74191052392563        5.87568475891322
C           -2.38481249257850        1.90627975381339        4.95981630741253
C           -0.88632845491087        1.70223023990838        4.79668818945637
C            1.69996299587593        2.30746882350052        2.60699454721610
C            0.90014181675877        2.40211208857381        1.30257614620073
C            1.93813647642701        4.12623677932095       -0.09403645211929
C            2.96470974198561        4.30461145752898       -1.21968843106245
C            3.48342803056507        5.74456506686534       -1.34161168807347
C            4.28629625957536        5.92331982577551       -2.62716203827845
C            4.35532733888729        6.04464167407966       -0.12234007967781
C            2.75410705400446        2.60922064242015       -2.88735617079484
C            2.34166590476042        2.07183159654004       -4.26407599396893
C            2.03114621792147        0.56926687806745       -4.24347000133888
C            3.28434199779596       -0.29141512108929       -4.10543996274895
C            4.81150865516691       -0.84218611512634       -5.90218444271070
C            5.89576684987482       -0.41267438953064       -6.74887879518351
C            6.85050775137597       -0.32561566981096       -7.48003086434166
C            8.06520271040268       -0.12680812554256       -8.26620394734402
C            9.00260554661500       -0.67805418983924      -10.47567665769215
C            7.60395999222314       -2.25844992578795       -9.37945817130822
C            8.19591797944522        1.38335695198718       -8.52590488431955
C            9.24460409254075       -0.60622542676148       -7.39135065803693
C            4.67867665846985        1.46681386045285       -5.03892423184463
C            3.46556050968403        2.36847030201376       -5.27205022453425
C            1.18176636387518        4.53510369838093       -2.91813293670849
C            0.26086394512140        1.06359938775870        0.89805576798810
C           -0.07109596241999        1.04092810863946       -0.61198591244424
C           -0.89682247311485       -0.18754078360617       -1.02171313057284
C           -2.74107919814202        1.20414214518929       -0.22228229488671
C           -2.10241411275925        2.16205913653697       -1.21715188924224
C            1.77895966632950        2.67860213867673        5.01075981926818
C            1.28330433134775        1.65255983831831        6.02280859382254
C           -0.22326907448220        1.82480863988806        6.18328082505089
C           -3.63632633409372       -2.17808306863781        2.23636461082461
C           -3.83319835424765       -3.40046431622815        1.55188023547602
C           -3.44693469166066       -3.54043844940118        0.22273461531731
C           -2.89931238722761       -2.44978559660888       -0.41360537483894
C           -2.73392829859557       -1.21319045737785        0.24048294592939
C           -3.08382550708496       -1.08619774454776        1.56997306428158
F            1.18749436791858        2.69141417407256       -4.75730221532418
H           -8.29655939422373       -3.16229202978098        5.86771150525098
H           -9.34596633597137       -3.56539278840714        4.50354472564329
H           -8.89043380710573       -4.81726863703386        5.67613124470499
H           -6.97808619456581       -3.40831572047559        3.74558673695506
H           -7.75078157806598       -4.17113424324457        1.72249646649658
H           -8.29814660072803       -5.86867789401504        1.62295615847181
H           -9.28367629403342       -4.66792805873660        2.49305501434390
H           -5.84368622136718       -6.36022119016774        7.99048240448937
H           -3.41761264434993       -5.91789952391826        7.56191105233559
H           -2.80722600009186       -4.64350474544879        5.49916710792650
H           -5.42344115440537       -6.04018102807995        2.80603620453728
H           -4.94676377206907       -5.77757846840320        1.11997542724750
H           -2.54589225721669       -6.16908278849765        1.75869400172009
H           -3.05500297921538       -6.49596766511838        3.41873888738181
H           -3.56290590178051       -7.57145730825342        2.11347723369606
H           -3.83400019633941       -1.98182068890532        5.65302218020102
H           -2.85801732122235       -0.98610528799258        4.57773806319595
H           -6.85474000142320        0.00670269006253        5.69336945728515
H           -6.67790003206219       -1.43331842894616        4.69138070194124
H           -6.01556036133707       -1.41397121394848        6.32476533705870
H           -6.00057961561469        1.13330337994070        3.68893195198626
H           -4.31304276307319        1.03080767685678        3.22049689989297
H           -5.42795145087443       -0.26289184322188        2.77244275931176
H           -4.37470089658511        0.36497564332421        6.89582843482661
H           -4.78408623380454        1.70904602976691        5.78354200486245
H           -0.72168091989895        0.68650434966674        4.41683511167916
H           -0.64643247462832        3.57495781561082        4.01175691840184
H            0.13510861574632        3.17812691553577        1.39797633977223
H            2.53047982423679        2.18679363731978       -0.00640584675281
H            3.81856239968217        3.64800598111840       -1.02098353637876
H            2.63630027288355        6.43643470035608       -1.33211392985806
H            3.65521670610211        5.81338164113225       -3.50365506884680
H            4.73280910628525        6.91290895501976       -2.64750398962119
H            5.08350169061022        5.18365565762972       -2.67535532237901
H            4.69026707572243        7.07773858835721       -0.14703453929457
H            3.79229504243257        5.88623593787825        0.79536212431535
H            5.22865393696836        5.39529415032451       -0.10924430715277
H            1.34591625169601        0.34728579319501       -3.42410608905153
H            1.52784391801770        0.34023398017561       -5.18539017219305
H            3.03799635612374       -1.34302132096045       -4.26425912152985
H            3.70979219456073       -0.16203939758009       -3.10496717285342
H            9.17985685380104        0.37754956276065      -10.65847545071181
H            9.94050816987374       -1.15369437976747      -10.14996757255844
H            8.70277373798057       -1.13952093256332      -11.41662236059911
H            6.80904592220869       -2.38417734486657       -8.64599490670145
H            7.25341880246864       -2.63841596530502      -10.33904743716968
H            8.47055970484068       -2.86291208999986       -9.07024698142735
H            8.01127097821540        1.92371082926839       -7.60096219751044
H            9.19381662785597        1.63317275667248       -8.87443479594170
H            7.46374854661998        1.69127578549572       -9.26647510252974
H            9.12030702727149       -1.65148911778251       -7.11610088818032
H           10.18008444653610       -0.48780106533291       -7.93388455290424
H            9.28950922352200       -0.01482603687097       -6.48045100984745
H            5.10680565251946        1.67800851366748       -4.05211656770273
H            5.43053757184690        1.64778487646581       -5.80881603703787
H            3.05789637265703        2.18903852598654       -6.26814296281559
H            3.76221910711482        3.41503822022426       -5.19949684664276
H            0.29980007392331        3.89627671747423       -2.90712896948778
H            0.99993916842482        5.36003533038671       -2.23814495953712
H            1.33307006752274        4.92410547520905       -3.92267347340628
H            0.95600156819058        0.25058656989861        1.09962049352666
H           -0.62851371024765        0.91658798370107        1.50467585253147
H            0.88346270399251        1.00318087113753       -1.15394120687622
H           -0.40376678117071       -1.09191081526859       -0.65944156454119
H           -0.91404380997743       -0.22644844138473       -2.12204472528398
H           -3.82741860522600        1.20453464903786       -0.34706447907072
H           -2.51505032973383        1.56286484130458        0.79416071026118
H           -2.48064373859567        3.17768931227914       -1.08060278332753
H           -2.32088820656637        1.83122210637821       -2.24234493566307
H            2.83665690353707        2.54749099363873        4.78271306690714
H            1.61140040924798        3.69449862234043        5.38535109780284
H            1.79309123444135        1.80012662526036        6.97391074267444
H            1.50709008755969        0.64838730166204        5.65919988209538
H           -0.44155470565854        2.80998115387066        6.60192106981708
H           -0.63783922535161        1.06447469675307        6.84351313619892
H           -3.56795670302694       -4.47422269439450       -0.30398870937367
H           -2.59765332604718       -2.52614275260671       -1.44556195170831
H           -2.92157634898291       -0.16092809142175        2.09500713076021
