151
 energy: -221.325299815391 gnorm: 0.004003623117 xtb: 6.7.1 (edcfbbe)
C           -8.73773247798664       -3.94411227477130        4.30424007051264
N           -7.05526660425472       -5.77741811105763        5.59605006481845
O           -7.64451358185271       -5.39934832765557        2.65184314864386
C           -7.43584533909680       -4.39909848068606        3.64829884933274
N           -4.39834272776948       -4.27451346353420        2.28622037547334
O           -3.03008716533123        0.73301624854140        4.65976667938334
C           -8.18266593258580       -4.91848902880102        1.44038868564163
N           -0.70330237308626        3.18294140398399        3.60240092360768
O            4.16753822760098       -2.35369914481274       -5.82277951951979
C           -6.49673931698640       -5.01403846786418        4.66865766584033
N            0.61416184659279        3.55380631358727        3.88772596356786
O            4.26806774820957        1.91040840484098       -1.27518715270449
C           -6.29174654963772       -6.35315298741414        6.50744741897188
N            2.30365695216133        3.34361355794594        0.66745925773556
O            1.80402479269651        5.47539726828035        0.11011282722165
C           -4.91549932753497       -6.19403582391847        6.55466601637529
N            3.50577522564634        3.88695095641153       -2.04272864052715
O           -0.24090702742965        2.22643639228859       -0.82681647001349
C           -4.32316947892929       -5.39717905014534        5.59182051162501
N            3.75430010720665       -0.14982405441185       -5.48008754975588
O            2.73232026692711        3.83642213297118        3.20091452306302
C           -5.11361662124078       -4.79218429945214        4.61570411775831
N            7.91258864503270       -1.25944527408256       -9.27461649517957
O           -3.42202454812365        2.79606804751834        3.86981294253358
C           -4.47592550397199       -3.92685023139621        3.61640761999921
N           -1.59756690320436        0.12382172213795        0.43650778711560
C           -4.66221889228160       -5.58786997310410        1.75305925496432
C           -3.40884791257235       -6.46015750370599        1.80314295098163
C           -3.86860762751659       -2.71120095090545        3.83396053016179
C           -3.71269139000889       -2.01756183076116        5.14912279562873
C           -4.69026019308015       -0.85347788332916        5.43402327176342
C           -4.50934197024246       -0.41927201125913        6.89120330025425
C           -6.13529368708117       -1.29081164740094        5.20282766897107
C           -4.40276116877529        0.34079465628699        4.51677070690359
C           -2.67047818599793        1.94330556663500        4.28893593503686
C           -1.18115705765891        2.14854486438331        4.51096285682039
C            1.57172450511780        3.52494614990119        2.95061269692472
C            1.15982400089941        3.13337962528688        1.52465044454467
C            2.56076128480082        4.51444208494077        0.07542242327016
C            3.85338696545424        4.49049024039655       -0.75211075545222
C            4.51165406577975        5.87230079968164       -0.83190135527340
C            5.69243720364693        5.86021883702367       -1.79742475337472
C            4.97272129940317        6.25909557853283        0.57373935574148
C            3.70228765737331        2.56613981899949       -2.15391978983880
C            3.29687681630571        1.82961245392571       -3.44278208420439
C            3.13611834945169        0.33412715017049       -3.16010861428446
C            2.77834880676707       -0.40564547458608       -4.44522758019542
C            4.34734985834481       -1.17064143232583       -6.12280634030532
C            5.19895912600351       -0.81468976175711       -7.22764833649506
C            5.88630024273620       -0.69499017156552       -8.20893048122965
C            6.68142269214878       -0.47014174112293       -9.41341840339873
C            8.93791969696667       -0.98630302713509      -10.26013780230583
C            7.67728907567142       -2.68488855247751       -9.15276449285990
C            5.80250551235375       -0.86212033961767      -10.62185443502936
C            7.00060591789533        1.03082004291999       -9.47962938434955
C            3.94993921859783        1.24499692250641       -5.79696241164234
C            4.34567559741919        2.03088746796678       -4.54224491676870
C            2.66637782108750        4.67069072973252       -2.92742624592413
C            0.68141943292384        1.68643554577149        1.40737031212436
C            0.46362610420553        1.26431062449616       -0.05811149867363
C           -0.26716902381966       -0.08595842487485       -0.09627770142074
C           -2.33505721938087        1.02872426954828       -0.42608786454396
C           -1.59984986400512        2.36919727052857       -0.44418182396380
C            0.91008694506878        3.95257223860078        5.25731902252847
C            0.51767859809361        2.82646348295280        6.20923032725184
C           -0.95573137785047        2.48937758024749        5.99818697098317
C           -3.36987242096192       -2.28587763040634        2.56690144664574
C           -3.71677827307909       -3.29030187629297        1.62741398922869
C           -3.37064745736015       -3.17391298080740        0.28523026339972
C           -2.68054057747562       -2.05027302071222       -0.11505560304785
C           -2.31088882368963       -1.05977370675401        0.80614441902952
C           -2.63856750295153       -1.18026412416455        2.13956794207310
F            2.06078762847010        2.29122818510091       -3.90761697169514
H           -9.39011221173633       -3.47495624617961        3.57327995799383
H           -9.23626975619540       -4.80420389523577        4.73984840098495
H           -8.51644618357374       -3.22558630264259        5.08716512797700
H           -6.93456554301397       -3.53907296429227        3.17533977746044
H           -7.58731916912485       -4.08242715399944        1.05483585938154
H           -8.13844502009785       -5.75287326394959        0.74400232644357
H           -9.22141159422331       -4.59773014936389        1.55506538178132
H           -6.81443896516906       -6.96251255521824        7.23172528925599
H           -4.32874360108843       -6.67841550629959        7.31819549993765
H           -3.25391664262817       -5.24377288479184        5.57985445793242
H           -5.46542572038419       -6.04734652687445        2.33292885854874
H           -5.00384274006809       -5.47927546492732        0.72094554127109
H           -3.61710751809550       -7.43473628446949        1.37289703063783
H           -2.60059486812013       -5.99287308974235        1.24485583082571
H           -3.08571619194961       -6.59462270848460        2.83290191401928
H           -3.84888008253432       -2.75441046145950        5.94278104876664
H           -2.69696636036857       -1.62439264337079        5.21593812426475
H           -5.13490476322626        0.44234720318047        7.11234994659532
H           -4.78896442104462       -1.22699413727621        7.56204172583751
H           -3.47308235003486       -0.15296547658608        7.08121144924158
H           -6.29738326228701       -1.53203909801002        4.15591678537322
H           -6.35564325898058       -2.17283802755754        5.79842454753382
H           -6.82391657526863       -0.49821677995337        5.48393378888932
H           -5.04050697567715        1.19451258301383        4.76666185532800
H           -4.57210778535139        0.07596974847640        3.46902504881177
H           -0.65376838195572        1.21761993783502        4.27566918627774
H           -1.32766594130612        3.99259510241664        3.65197994525231
H            0.38258645009714        3.82911241724953        1.19075014513537
H            3.01822498138047        2.62959918030194        0.67126409889633
H            4.56229438564922        3.80128943113765       -0.28226023054936
H            3.76792309592601        6.60997154451583       -1.14729631943260
H            6.42650691629428        5.12526278615098       -1.47557695769801
H            5.37503191446559        5.61184434944265       -2.80574298446445
H            6.16626259086502        6.83761544601079       -1.81341679918260
H            4.13626910064763        6.23570739532050        1.26945673185678
H            5.73294659212364        5.56933615649810        0.93269000382977
H            5.38707363258037        7.26322937217851        0.56752730433475
H            4.06720741308757       -0.03976547906776       -2.73688712986506
H            2.34243230467831        0.19035554121840       -2.42593565404524
H            1.79571804908557       -0.06790423972234       -4.79469020978453
H            2.74751456750529       -1.48282443673450       -4.27263702616311
H            8.61856484522550       -1.18277721232974      -11.29509485128091
H            9.27098889537278        0.04530833464018      -10.17758369795829
H            9.78723608134626       -1.63298519602859      -10.04351065993312
H            6.86479051735950       -2.86585349867188       -8.45046443331542
H            7.43303177914352       -3.16728146184753      -10.11125063465948
H            8.58079687709025       -3.14996609814119       -8.75862638269062
H            4.94391506555205       -0.19905499649679      -10.67967632403057
H            6.37509226396167       -0.77411789699106      -11.54159452968471
H            5.44157531415210       -1.88285196532409      -10.52208903637474
H            7.41551735412202        1.29129838652310      -10.44834924960471
H            6.08460793097455        1.59790616586486       -9.33562567769024
H            7.70551618593805        1.29507264004912       -8.69770504866556
H            4.72897216553909        1.33135204686705       -6.55451629761175
H            3.01279718163274        1.65439447118497       -6.19198372388985
H            4.43663431442610        3.08628205754225       -4.79546936080912
H            5.30295368151024        1.67939240201651       -4.15793051522175
H            2.92611437775089        4.49614198044185       -3.96770901437716
H            1.61291621928015        4.42742085606160       -2.77547162101853
H            2.80869567711101        5.72136217205713       -2.70011636789007
H            1.42809164043095        1.02040010569463        1.83958275107161
H           -0.25858204491298        1.57185742892589        1.94152978313343
H            1.43048004981880        1.18137442277891       -0.56643632481806
H            0.25732013943227       -0.81297984554838        0.52451323096212
H           -0.28436311802775       -0.45380433705627       -1.13837236367898
H           -2.41951105234810        0.64112402092014       -1.45711751287031
H           -3.33669766237182        1.17113006109113       -0.01787629541968
H           -1.67126819271730        2.83149329815979        0.54788383708126
H           -2.03511305402131        3.03953367801716       -1.18684049071177
H            1.97675355852687        4.17056023644532        5.30373560374808
H            0.34403542609094        4.86148275265127        5.48730664571803
H            0.69446484926077        3.13886368602228        7.23711373185278
H            1.13187466995843        1.94900492600171        6.00148913092027
H           -1.57746084344011        3.34567509334402        6.27117654582782
H           -1.25053535282376        1.63693533695086        6.60880613910917
H           -3.63340596607036       -3.93633868871035       -0.43230508777315
H           -2.40953305568041       -1.93350367508218       -1.15446810686036
H           -2.31091895983663       -0.41992565661619        2.82662766943727
