151
 energy: -221.324309538934 gnorm: 0.007935666181 xtb: 6.7.1 (edcfbbe)
C           -7.20531688522011       -5.75585128355162        2.77990503530459
N           -4.87704778088765       -6.91380103178285        3.43454623351363
O           -5.93558164516088       -5.19022653299453        0.77494112460938
C           -5.94029007599564       -5.12755866455419        2.20100420765381
N           -3.09697001370045       -4.07818010627997        0.30464787404907
O           -2.05859836476052        0.35026335573208        3.82361939404866
C           -6.59174585579138       -4.11377717774695        0.14500264698407
N           -0.15960056876058        3.29389153186539        3.18733380417859
O            6.18832001105089       -1.27770716613776       -3.56816139502331
C           -4.68838849339417       -5.82275313573815        2.70631863590125
N            1.12883096385332        3.75724462983504        3.47037604295250
O            4.95837847121979        3.86731940551212       -1.15585493624668
C           -3.83707383441858       -7.56052092437850        3.93024710990068
N            2.50717959094988        4.65276462297896        0.23325003403131
O            1.28186971280559        6.35858408700218       -0.61051323004652
C           -2.52792994579424       -7.15287820561415        3.73095901791784
N            3.74559824107302        5.30699433295614       -2.38578508715970
O           -0.40361637065264        3.65232865195948       -1.06198339003511
C           -2.31931545616045       -6.01302579363318        2.97647080629017
N            5.00889087629152        0.51068311645237       -4.31752111811888
O            3.14720071015256        4.41866830652433        2.74430652510873
C           -3.40618118953542       -5.32093974791802        2.44295380883165
N            2.19527740057909       -4.51743907321235       -3.91566633038167
O           -2.75322747225368        2.43509899080437        3.37825830734321
C           -3.10628484220279       -4.09945674909426        1.67958823530215
N           -1.06242521891950        1.00820535892183       -0.42163397393849
C           -3.29562338296680       -5.20951674499220       -0.56510068219174
C           -1.96264084559446       -5.83283060406640       -0.97726272300966
C           -2.64558374604209       -2.90314596369647        2.18377696974911
C           -2.45227665311666       -2.55179655694963        3.62566789986234
C           -3.47955567705556       -1.57925447085412        4.25392356289797
C           -3.20409269445582       -1.48765529274882        5.75720493576598
C           -4.90616005445001       -2.07249063379187        4.02200368309038
C           -3.37890930259164       -0.17861421969957        3.64023090475282
C           -1.87503375609022        1.64188467099759        3.63438768968068
C           -0.41734076053356        2.01539064438492        3.84160450984109
C            1.99476509741725        4.07252101377470        2.49653734349859
C            1.48353047133909        4.04618400995920        1.05289773593163
C            2.34702107217201        5.77048134775006       -0.48080582558300
C            3.63735488482923        6.17960767877356       -1.21140391409908
C            3.70194555044223        7.67443280809995       -1.54445353825271
C            5.03194626367523        8.01142623025465       -2.21624749036058
C            3.55103101589855        8.47964834144532       -0.25371883730907
C            4.45712737875925        4.18538055296855       -2.23877070005537
C            4.66214159618312        3.22686663287473       -3.42336790769564
C            3.49917548697594        2.22840195833448       -3.48882003907583
C            3.75783315656155        1.17957794344603       -4.57348822743887
C            5.11651112622662       -0.75978416279467       -3.88465648008205
C            3.88816811142985       -1.51058487122386       -3.84607644330562
C            2.96810938043274       -2.28562963599911       -3.77935649769355
C            1.77084485740546       -3.12191501164238       -3.75544808242894
C            1.13864216378457       -5.50226142868282       -3.82419480326503
C            3.01597169116451       -4.75863683423421       -5.08450225728183
C            1.11695050720356       -2.91901812162015       -2.37814149595624
C            0.81931081566939       -2.60599710778503       -4.85768798738196
C            6.15173228424488        1.39519132977955       -4.31908565068940
C            5.99131103986381        2.48302899231407       -3.25657450423520
C            2.88959696297798        5.65194378061079       -3.50378390580987
C            1.16662431192109        2.63393460102985        0.54490738652951
C            0.60584766023259        2.67235974607431       -0.88708660425452
C            0.05592849707939        1.29389611281160       -1.29153235491423
C           -2.12258977831299        1.97777387438099       -0.62355455363925
C           -1.58387030935512        3.37466330175430       -0.32567294084377
C            1.49746798310653        3.86699600428843        4.87488360397581
C            1.32012047387633        2.51592169733069        5.56063102020742
C           -0.11559838157283        2.03992742557555        5.35277139038328
C           -2.31019458793028       -2.10260859653150        1.05213561149733
C           -2.61260398848251       -2.86738089783441       -0.10262919119895
C           -2.39779435589385       -2.36070632139352       -1.38073031120380
C           -1.87933592387263       -1.08921835592264       -1.50350486163249
C           -1.54734859915956       -0.33310725005318       -0.37082144472175
C           -1.74148125650598       -0.84198337659135        0.89583391260899
F            4.73082053364405        3.93889021564176       -4.62534228275542
H           -8.08541998634209       -5.23153804134077        2.41636262874997
H           -7.26038252912203       -6.79679409255402        2.47849795701908
H           -7.17991006247699       -5.70399152161407        3.86254311725219
H           -5.88154358126281       -4.07099048698771        2.49735440257836
H           -6.07512013656823       -3.16790097812250        0.34860200874051
H           -6.55998317299079       -4.32512515808183       -0.92116672715337
H           -7.63385641290468       -4.02844442648751        0.46522395049149
H           -4.07488512471283       -8.43651678696147        4.51825635171989
H           -1.70396393796262       -7.70626315410122        4.15296954082233
H           -1.32012785870947       -5.64262044667989        2.79544000847048
H           -3.91446441742845       -5.94221477020438       -0.04569977182021
H           -3.84096026562067       -4.87100785387500       -1.45018064501516
H           -2.13746230257772       -6.67891896768346       -1.63508792578644
H           -1.35038225662321       -5.10010591884247       -1.49803585556367
H           -1.41692193188207       -6.17646339503529       -0.10095303788419
H           -2.48831236748725       -3.47489166199153        4.20833899156420
H           -1.46245440474101       -2.10802329719943        3.74427351152015
H           -2.15797713895992       -1.26484625098176        5.94182614904738
H           -3.80698458877732       -0.70287555857752        6.20654936420351
H           -3.45012364508480       -2.42611508942511        6.24479929918730
H           -5.62211540156938       -1.43098896743631        4.53134607975377
H           -5.13404296937535       -2.06457166305483        2.95888058717456
H           -5.01347394697558       -3.08509524891226        4.40314983643846
H           -4.09637075710665        0.50447494151472        4.10353931188986
H           -3.58517282224528       -0.21342322188630        2.56717533704504
H            0.21179418967645        1.25540989965115        3.36582230687402
H           -0.86307924308134        3.97169034776594        3.48657748072522
H            0.59350118538486        4.67843383467544        0.97213182043758
H            3.43716940853959        4.25829166907149        0.32453022581415
H            4.48590821714474        5.93289836555170       -0.56450999139948
H            2.87118862731089        7.93555307609692       -2.20398537736607
H            5.04649009223003        9.05892275413717       -2.50247763590782
H            5.85271451724807        7.83147820450328       -1.52529280569886
H            5.19817849983774        7.40712067543896       -3.10432276653582
H            2.56696185993215        8.32150693201815        0.17982491138834
H            4.30301970860307        8.18223165423273        0.47379590817360
H            3.66821135228811        9.53908603493540       -0.46288533190617
H            3.42840470636395        1.74429411427147       -2.51354566808693
H            2.55948868595660        2.74094280272224       -3.69306594461159
H            3.82136439508780        1.67285016377649       -5.54885371551788
H            2.95029826119646        0.44717225764983       -4.58905109903695
H            0.58280406771683       -5.37199910232692       -2.90151165427462
H            0.44261799321275       -5.47619156348637       -4.67581872911587
H            1.60467323323929       -6.48642404669387       -3.80146882783406
H            3.47650303385873       -5.74112510300880       -4.98223558671950
H            2.44652185655870       -4.74434561870051       -6.02674282327093
H            3.80731699855821       -4.01330278327829       -5.13863339148269
H            1.69770325208785       -3.42772978464984       -1.61443518764132
H            1.07930775745848       -1.85810484441623       -2.14100712392941
H            0.09796557041807       -3.29466069825884       -2.37364783856034
H           -0.08249317831153       -3.21186896233568       -4.88432453589786
H            0.54119932846978       -1.57782482118164       -4.64411351583310
H            1.30257891954411       -2.63965757452402       -5.83087825291761
H            7.04146201473302        0.79790914276673       -4.11445980708269
H            6.23920249540758        1.85381076251008       -5.30902786451117
H            6.81154333123229        3.19696244226623       -3.33440294795073
H            6.01055855124223        2.04885310457613       -2.25668403986121
H            1.92802177626229        5.97843968619723       -3.10738300409978
H            3.33143855020725        6.45653624140652       -4.09073593098429
H            2.72390961229977        4.80400426745080       -4.15623331431395
H            2.07729661729361        2.03589372129830        0.54687290841927
H            0.42873872258171        2.16941059031792        1.19218725353920
H            1.39435693339774        2.98594849843790       -1.57721527097486
H            0.81593621823322        0.52831108449410       -1.16229973205315
H           -0.23427966446192        1.33878309809678       -2.35134970415892
H           -2.51257885543410        1.94716489930187       -1.65925763151124
H           -2.94245014336347        1.75809813805810        0.06481243472880
H           -1.40081573572986        3.47062331701551        0.75028182809817
H           -2.29772641359544        4.13717387990839       -0.63829648244185
H            2.53127405165500        4.20833706580241        4.90941580038322
H            0.85191962115095        4.61793546652281        5.34268107330447
H            1.53948112404539        2.61294509630358        6.62260065072083
H            2.01626758681858        1.79732345884940        5.12547082176348
H           -0.80937320353451        2.72384342158467        5.84855993727862
H           -0.25789094337561        1.04151069642343        5.76373648372559
H           -2.64210503748693       -2.94029417860934       -2.25887202042941
H           -1.72236591375039       -0.66620732779608       -2.48603369854358
H           -1.43247085777801       -0.24983769377796        1.73856793177061
