151
 energy: -221.320310370216 gnorm: 0.007591686041 xtb: 6.7.1 (edcfbbe)
C           -8.97153669606716       -3.26176540608954        3.08943277549582
N           -8.10273721225452       -4.83630273795223        5.23690823871691
O           -7.50806173974608       -4.98856436519882        2.10748943137186
C           -7.59353754053984       -3.91914478444920        3.04868716064600
N           -4.26616795713271       -4.71773645718500        2.92484958876734
O           -3.15494265131798        1.13132917721744        4.78101260590827
C           -8.46367434666461       -6.02223539851613        2.25141185531066
N           -0.50973357199205        2.93851932962290        3.21432792740917
O            4.19069132257782       -1.88821295807826       -5.40179790225387
C           -7.15553183527309       -4.37379333625339        4.43149829270159
N            0.67454876708171        3.58542644701901        3.58555736064622
O            5.14277909447928        2.99366202762626       -2.51671461147439
C           -7.77855912363203       -5.24628973728720        6.45158039858090
N            2.68188832937366        2.86301444585806        0.76019409844227
O            1.06133273580583        4.03365838543917       -0.27037657049002
C           -6.48678751701188       -5.19387344617035        6.94894307619881
N            3.12329936190758        3.99204792358457       -2.44076441614825
O            1.88972875718529        0.15381557655601        0.07456223757799
C           -5.48940574796677       -4.72477625473006        6.11209253976825
N            5.03561316268974        0.08699609129501       -4.66702006237525
O            2.86751098105832        3.93781702500829        3.26696622388138
C           -5.80869295394289       -4.32209411042013        4.81770746957684
N            5.67598734565994       -0.18910171541821      -10.09832688769005
O           -3.26539632137787        2.68365037583337        3.15263122910018
C           -4.73473623544614       -3.88570133873668        3.91550361806409
N           -0.08445411622667       -1.65028192295620        1.00161977354736
C           -4.63976346834969       -6.09368707095057        2.72673902330923
C           -3.66919615371337       -7.04377532835496        3.42738565141369
C           -4.01516978243263       -2.71428493679169        3.93385166221365
C           -4.18128369499158       -1.53577631368844        4.83578111299728
C           -5.05835421553573       -0.39059510875176        4.26200706012161
C           -6.51174860261996       -0.58302568899897        4.70062593821887
C           -5.00210501600082       -0.32070762713213        2.73508133444156
C           -4.57774920530322        0.94953046602307        4.84884018414251
C           -2.64508703353912        2.05002766470461        3.98167495897834
C           -1.19411116867789        2.32250255982339        4.34249870792929
C            1.83418595902013        3.35766341623252        2.95378032235266
C            1.81522099070412        2.35085714037591        1.79971244450567
C            2.24544329928328        3.72875957392430       -0.15834012841062
C            3.34898082395524        4.33253088126761       -1.03912109986415
C            3.43357607184400        5.85016912697058       -0.78238030637382
C            4.57010249634590        6.46361798866736       -1.59469603943098
C            3.65297795110663        6.10101901107200        0.70847393783834
C            4.07548632374380        3.28206757266785       -3.06104998197770
C            3.79399703911392        2.67580950894541       -4.44449626038084
C            3.03217117180691        1.36102392229605       -4.21085974117807
C            3.98441081209120        0.27737486860255       -3.69627744371457
C            4.95113259342990       -0.92832946259478       -5.54995892716428
C            5.76943406124990       -0.80554599724620       -6.72841998601870
C            6.18554585154578       -0.75052620839080       -7.85714057188900
C            6.75598903004271       -0.61769679095768       -9.19373551526344
C            6.08789675803384        0.05139539537079      -11.46612254349904
C            4.87647266719743        0.91563358338932       -9.61104032556958
C            7.94617297615093        0.35967919802512       -9.11478053648533
C            7.24837817735498       -2.01590154243989       -9.60559295689495
C            5.88156639147079        1.24406583534717       -4.82600408367916
C            5.06255711964817        2.45361999716616       -5.27941286388455
C            1.89460220621878        4.46526833092072       -3.04755283065978
C            2.30646510540334        0.98812047955473        2.29456097023258
C            1.78539658397488       -0.17799310318334        1.45046700005549
C            0.33966852514021       -0.53681750670234        1.82326064148832
C           -0.00282509459486       -1.29893095403878       -0.40427335807465
C            1.43997685915709       -0.91391455989342       -0.73264313129753
C            0.59537587571727        4.54517724796482        4.67653007652293
C            0.07615879663101        3.83026392949676        5.91855029870775
C           -1.28667339491984        3.22736075704682        5.59559901802816
C           -3.03637050928881       -2.83009369260054        2.90272702965678
C           -3.22381775353989       -4.09311616312004        2.29859926463110
C           -2.40765200938819       -4.50746692681937        1.25160144116599
C           -1.40744296442197       -3.66169550957028        0.83426755559676
C           -1.19279326657533       -2.40222031494677        1.43019073482263
C           -2.01460012948419       -1.98784431649981        2.46345765767509
F            2.99357367960595        3.52022987449196       -5.23157217467000
H           -8.92062649725653       -2.34789167755065        3.67328972295549
H           -9.29065740910170       -3.02066933627454        2.07902967078974
H           -9.68988197847184       -3.92810056316551        3.55587476979817
H           -6.84905144901933       -3.21030093754469        2.66499979141739
H           -8.11332888238134       -6.83114053883723        1.61321364748050
H           -8.52758369931973       -6.36648727416062        3.28752872639242
H           -9.45207450982155       -5.69845952693592        1.91606515868736
H           -8.59894330768545       -5.62566851843697        7.04512475562181
H           -6.26783740069391       -5.51986723911539        7.95314270474919
H           -4.46225766283415       -4.67608182119528        6.44368277352366
H           -5.64928643113333       -6.23701170374699        3.11381784313685
H           -4.65837055997516       -6.29327298222851        1.65261182970056
H           -3.68396346383686       -6.87247010700323        4.50180478442825
H           -3.95518923608550       -8.07386681865003        3.23314564036560
H           -2.65621171343881       -6.88294654046685        3.06477657454746
H           -4.61675402192595       -1.85864846629051        5.78311618375237
H           -3.18641619864840       -1.13557500210896        5.03928053997728
H           -6.86563213665648       -1.55289855149777        4.36637176719913
H           -6.59917665397470       -0.54164718588553        5.78343231446165
H           -7.14801514782802        0.18800875360116        4.27303476141033
H           -3.98596793769981       -0.17299169890082        2.37973109319570
H           -5.38241245465314       -1.24027504286950        2.29719637288349
H           -5.60912400800886        0.50858154048918        2.37592626930039
H           -4.81110580997677        0.99133056411592        5.91514589421541
H           -5.06182649245770        1.78143450112829        4.33013843074233
H           -0.68167236851276        1.38996634127699        4.59543182659467
H           -1.14535658158011        3.59519503359303        2.75538110498002
H            0.80591319954689        2.29273045304784        1.38808828617496
H            3.67356644551713        2.71681118007754        0.88279998266549
H            4.31117663497547        3.88115728979875       -0.77833234450196
H            2.48482077750785        6.30824683396058       -1.07676482843665
H            4.40780219208162        6.33102730890213       -2.66152959287174
H            4.64250749500624        7.52754687786012       -1.38603755407999
H            5.51485755551509        5.99271879092142       -1.33188602762176
H            3.74707190262261        7.16662128410792        0.89786398990461
H            2.82109952857222        5.72268317865720        1.29831792587583
H            4.55865082275499        5.60840649480704        1.05399778232811
H            2.22527803806608        1.51423996026166       -3.49325573333366
H            2.59947977475962        1.04313191957951       -5.16262158023141
H            3.45374048954511       -0.66818922448384       -3.57501453678145
H            4.42536410161255        0.57818439696927       -2.74278111584433
H            5.18821057315611        0.09659600882854      -12.08166854824793
H            6.63434286953037        0.99820491940392      -11.59129887721755
H            6.70299866022384       -0.76868596707553      -11.82523123768546
H            5.42961019375394        1.86651879886248       -9.55659020012626
H            4.03590250663641        1.05144417355265      -10.29052326841949
H            4.48467127452004        0.67802476483644       -8.62390996389952
H            7.61774490164715        1.33912020648548       -8.77431169242062
H            8.68388844678758       -0.02135160575964       -8.41413308061259
H            8.41121959821688        0.45900943539997      -10.09172180973349
H            7.81863838206455       -2.45488606767196       -8.79106968730432
H            6.39422717319928       -2.65232492471079       -9.81821875462948
H            7.88681293384194       -1.96346948939065      -10.48251365515349
H            6.34001385569748        1.46521676980711       -3.85878508538873
H            6.65822137944501        1.02940907174245       -5.56039490453024
H            4.73338423133191        2.30537740817546       -6.31086478842606
H            5.68144443949568        3.34987030119689       -5.23676858121387
H            1.39189262497967        3.67453848789575       -3.59921521226160
H            1.22796827613462        4.79230994537879       -2.25513448799381
H            2.09329102195446        5.29591374081345       -3.72604438121075
H            3.39643438018861        0.99403090384886        2.28319688468368
H            1.98027691304575        0.83668825646049        3.32286462813200
H            2.40611068365884       -1.06964550001452        1.64097865677269
H           -0.30232504205867        0.34999302544883        1.69052575517469
H            0.31958086711681       -0.84702740231779        2.86822558699240
H           -0.30451392019720       -2.14361925014246       -1.02073236369105
H           -0.66128565079477       -0.44198879015930       -0.63060705939744
H            1.52092770561379       -0.56786779766328       -1.76388379954050
H            2.09263292543412       -1.78671710998758       -0.58541536567310
H            1.59708091879035        4.94812896485221        4.82459908626147
H           -0.08382063890369        5.35405610253899        4.38593981996927
H           -0.01282778595665        4.53609995500044        6.74245302633440
H            0.77780261738486        3.04543791290427        6.20273035905595
H           -2.00041174748411        4.03165848350485        5.39763857173074
H           -1.65899641518501        2.63315981962968        6.42793727933997
H           -2.54037899412777       -5.46895732070000        0.78006368524879
H           -0.74725681468109       -3.97943963094281        0.04206275115834
H           -1.87971531441486       -1.02627458813854        2.93391243647639
