151
 energy: -221.321176587796 gnorm: 0.004500655235 xtb: 6.7.1 (edcfbbe)
C           -9.30871114689652       -3.79951080238975        6.28703669135557
N           -7.41008454662112       -5.44439807944888        7.42595685296273
O           -8.37239327247392       -5.10215948809995        4.43480283533690
C           -8.07131343725570       -4.16886456991676        5.47174826022860
N           -5.29792963625909       -4.53531482746796        3.56681122841215
O           -3.39056331386328        0.78915037972160        4.88946504085684
C           -8.90198835027796       -4.51917438315927        3.26607531289010
N           -1.14445298212032        2.75948082243409        2.92671129837180
O            4.19457817223883        1.15573267910047       -9.58636380821949
C           -7.00095415267579       -4.79485261722640        6.34631761705582
N            0.21559302542242        3.07764038585742        3.00795152858140
O            3.15904879264529        1.33641125985216       -3.89056530695560
C           -6.51537510853692       -5.98952781728747        8.23067604118986
N            1.67376961836321        1.88514428181995       -0.12911748189224
O            1.96501320052897        4.05992822326257       -0.65127756187405
C           -5.14805305846197       -5.90232204306541        8.01872142929390
N            3.72490065658489        3.18463060639545       -2.73443510782398
O           -1.60110078180795        1.33808091344048       -1.00355812288487
C           -4.71117197843679       -5.23043704243599        6.89168642371334
N            4.74213553567737        2.59984204625875       -7.92322351276060
O            2.30854553823875        2.83327735613255        2.24995715497415
C           -5.64341901386665       -4.67204631907967        6.01958455069206
N            9.49424630113791        1.53309093854193      -10.34807309647631
O           -3.84950947920771        2.40354585614484        3.40000779825773
C           -5.16941997404249       -3.97393632270862        4.81828592265416
N           -2.72568412519330       -0.61147983210001        0.65365255419022
C           -5.67248460338534       -5.90128742553777        3.29715034753674
C           -4.45370345909800       -6.82250555456637        3.30401378272514
C           -4.52192532020175       -2.76242328391977        4.74075875658720
C           -4.11405125284951       -1.87919034375613        5.87757270397242
C           -4.95464818522752       -0.60361832847946        6.12040089081370
C           -4.49469947664487        0.02644409764700        7.43753462997177
C           -6.44242166349744       -0.94082009276176        6.20033767900672
C           -4.77097094028499        0.41541254206218        4.98776418579159
C           -3.06393117065663        1.76988030169489        4.06824212336768
C           -1.56711085329561        2.02717158556891        4.11834918892487
C            1.10352493041834        2.66971968057952        2.08807200205118
C            0.56268124439876        2.07372646766104        0.77886662533829
C            2.33440518096225        2.89457327968781       -0.71087030172341
C            3.56861899043429        2.43127128853300       -1.49540750317813
C            4.84900699667390        2.46734191410406       -0.62947360424534
C            6.06374983550828        2.12603208831921       -1.49069456626531
C            4.73051033041032        1.47610709944984        0.52664488571715
C            3.51285286311972        2.51954995768675       -3.87570048475377
C            3.85650668007900        3.14367665373654       -5.23959034544821
C            2.90346308042478        2.61502237613645       -6.31541435183499
C            3.37797266701110        3.02622531418727       -7.70863350491124
C            5.03509157520573        1.66265715671415       -8.83894388900175
C            6.42582527730605        1.29702578142469       -8.94893255387769
C            7.53273515205747        0.90850195210612       -9.22094692929548
C            8.90580094777718        0.48785273007706       -9.49773779215163
C            8.79983803245396        1.71977684365466      -11.60740205792102
C           10.92182448493292        1.43063140228762      -10.56764645669889
C            9.64035132087379        0.40904141586410       -8.15049205282815
C            8.85965623169021       -0.91166909239272      -10.14450283573309
C            5.68301376395326        3.16105271008215       -6.98590134825340
C            5.30809785370102        2.75421071774864       -5.55827901026571
C            4.01840702855835        4.60045837072267       -2.63398212560023
C           -0.17718768026314        0.74684990567571        0.92024529846907
C           -0.79991175073518        0.32020489393708       -0.42285591594205
C           -1.63141989707828       -0.95474039342635       -0.22852564054001
C           -3.59660816513677        0.36064079843547        0.02247708104891
C           -2.78133065788196        1.62089927914826       -0.26888690290674
C            0.64177946915166        3.82935495042457        4.18157625503433
C            0.25310625973222        3.08332139417892        5.45483630891647
C           -1.24336984476969        2.78241937056380        5.42236059354055
C           -4.21790757731985       -2.56783335657764        3.36121195583334
C           -4.71275658708202       -3.69677255078908        2.66069927620468
C           -4.55569423175459       -3.81851825478897        1.28397825155804
C           -3.91031688684816       -2.80489368964309        0.60833693388120
C           -3.40188601763677       -1.69104378640690        1.29116851622018
C           -3.53850461960516       -1.57884708504108        2.65837627968652
F            3.76010229087415        4.53519208283356       -5.25419263633718
H           -9.02794268210612       -3.12021693675012        7.08565190504442
H          -10.04877890592794       -3.31608991278248        5.65555768745935
H           -9.73319331858769       -4.69986553589638        6.71930225607945
H           -7.64582371570117       -3.26677285218504        5.00596823830626
H           -9.87644588160124       -4.05713565478838        3.44668420849540
H           -8.21655083611348       -3.76455093241468        2.86126900885345
H           -9.01569044124470       -5.33078298598461        2.55109328909809
H           -6.91846469319713       -6.51059820806752        9.08813165380812
H           -4.45167189082056       -6.34792709850275        8.71002366191582
H           -3.65747105542179       -5.13594278702049        6.67253696259830
H           -6.39312602027481       -6.22158943998736        4.05190143278242
H           -6.16354071108382       -5.93595302425174        2.32201256820206
H           -4.76024225619381       -7.83914280930254        3.07897771766822
H           -3.72994559575156       -6.49923423437204        2.55963658134687
H           -3.97696582179596       -6.80986958622565        4.28074644064406
H           -4.14901154861447       -2.46959492306422        6.79559290126206
H           -3.08096624213157       -1.56623218236383        5.71163157398389
H           -5.03151490764244        0.95342997819501        7.62459029651986
H           -4.68267621344783       -0.65196596226525        8.26523769698252
H           -3.43057683786839        0.24371274088090        7.40072885407119
H           -6.80324206883485       -1.28002190255589        5.23309046627108
H           -6.61038531658129       -1.72762003310760        6.93080742368031
H           -7.01749464230045       -0.06601871122608        6.49217017386248
H           -5.36391654241323        1.31615458832254        5.17750593749230
H           -5.08934957459488       -0.00542784471176        4.02959261975686
H           -1.04430342924262        1.06470038121616        4.12355156934152
H           -1.70768380291887        3.60643545734050        2.83192543153334
H           -0.10311734184990        2.82572436710650        0.33899017073634
H            2.10203715207890        0.97074212991844       -0.12449792904143
H            3.40173237230007        1.39608112604761       -1.81310368858745
H            4.96898156518659        3.46906359576114       -0.20648991955858
H            6.26404857801949        2.90537166308679       -2.21965644983609
H            6.94222930546013        2.01418537711305       -0.86164424366746
H            5.89535677617914        1.19125183540945       -2.02220837794338
H            3.96514502044890        1.79210891735659        1.22837148356474
H            4.50209541515442        0.48030787579016        0.15521011514436
H            5.67425286147977        1.42948686286511        1.06295481950059
H            2.86050081083807        1.52979657379388       -6.22580176437201
H            1.90597587404341        3.01668176843110       -6.13336815059146
H            3.33080175618673        4.11549760347144       -7.80720629224368
H            2.75316145477179        2.56447475248533       -8.47473910190544
H            7.72393149124886        1.68706939542451      -11.44596484536228
H            9.05982022806346        2.70269228068376      -12.00058021783593
H            9.06772669960027        0.96561270424376      -12.36257644450548
H           11.23005067201102        2.30589715243793      -11.13813242701874
H           11.45135319674784        1.44098614597832       -9.61990106154121
H           11.21371748815029        0.53522851579544      -11.13729678759623
H            9.02902254074045       -0.14046144306403       -7.44011077812163
H           10.58826443368582       -0.10944467779793       -8.26046472145372
H            9.81454820532849        1.40937021705490       -7.76473994381912
H            8.23010655158673       -0.90689722902650      -11.03105157820915
H            9.86279483902390       -1.22707924644154      -10.42099183882470
H            8.45020086393414       -1.62843666011138       -9.43810808003660
H            6.68704097764541        2.81001012285198       -7.22575935920281
H            5.64931753735938        4.25199942248640       -7.07137722841243
H            5.98068683227960        3.24049511395245       -4.85191034008010
H            5.39181946182831        1.67343461785844       -5.44059238918296
H            4.96040118510152        4.84668234964495       -3.12288736861539
H            3.22069830640491        5.19352737917799       -3.07759099024528
H            4.07388596071980        4.86291045907137       -1.58401362552742
H            0.51383651734852       -0.02891914792006        1.24922076035161
H           -0.97559340799874        0.84258870889698        1.65127657329640
H           -0.01743222361356        0.14991115464818       -1.17016952514176
H           -1.02875962971264       -1.73406790983303        0.23927285906644
H           -1.97337349474725       -1.30964088880034       -1.21779869674392
H           -4.03058765328735       -0.02946502917303       -0.91650925795931
H           -4.40749631269616        0.61219115417639        0.70836606937893
H           -2.53484578316013        2.11535545176254        0.67838724019671
H           -3.35009379288575        2.30952774447876       -0.89599671376780
H            1.72044131484424        3.96221643968334        4.10578759401474
H            0.15455296008096        4.80998077429866        4.15223148175760
H            0.49977338188784        3.69446409472184        6.32156791349563
H            0.81666363099792        2.15161524636821        5.51425157978682
H           -1.81339310320951        3.71430422506332        5.44726963326436
H           -1.53512878293999        2.17362426179972        6.27672220900095
H           -4.92904735295007       -4.67887082117641        0.74980359409006
H           -3.78296162186401       -2.87071008157995       -0.46229483450077
H           -3.09295689478692       -0.73237080365813        3.15013603312608
