151
 energy: -221.318663663646 gnorm: 0.009550265699 xtb: 6.7.1 (edcfbbe)
C           -9.38214802965503       -3.03217552027009        5.89131394969513
N           -7.93372163002625       -5.29852761888647        6.62533081980841
O           -8.91825243414275       -4.37743091897269        3.88550407389959
C           -8.33642246026825       -3.61499454350151        4.94123327694956
N           -5.70458172540823       -4.10667002996478        2.93615654509331
O           -2.77079859463574        0.35598122992150        5.10317301829389
C           -9.67048326260656       -3.62602272818466        2.95735533169399
N           -0.43834065187129        2.40491041947874        3.34825191370871
O            8.50455667978807       -1.40375362734176       -5.34158171124028
C           -7.39540324115753       -4.55598955956865        5.66915253684376
N            0.95275558688210        2.53962855139133        3.27957270556349
O            5.42603560193768        2.24686700224633       -2.17494103542980
C           -7.17047450984485       -6.14028331356354        7.29975622428133
N            1.68223276701392        2.42969046353847       -0.28629729088703
O            1.72345725172129        4.67471773268758       -0.07225274758949
C           -5.81010196763734       -6.27758792005524        7.07551020248409
N            3.22924671543971        2.55073571065212       -2.56616334762116
O           -1.64152143978344        2.16980433169394       -0.63496175823834
C           -5.23947179666625       -5.51122859404580        6.07541022755128
N            6.45169411925491       -0.47472069341767       -5.58874372634290
O            2.84875076219861        2.47064704767225        2.06587583226036
C           -6.03536880831052       -4.63880758182731        5.33565453655402
N            8.59209987600477        0.85965006954980      -10.36884810205165
O           -3.04627138548523        2.39998867038018        4.22617873954245
C           -5.42389016826817       -3.84789081113486        4.26082047596402
N           -2.69589925366446       -0.07335829989896        0.66911321662627
C           -6.34796398414135       -5.29882864285731        2.44236644119459
C           -5.36799665131068       -6.47140680890984        2.38919650638119
C           -4.52921586680946       -2.80781505061527        4.37069491376390
C           -3.87881114847871       -2.29558150372781        5.61688650230771
C           -4.44724755938678       -0.99661735236103        6.23087214737711
C           -3.76092433647360       -0.76453416246738        7.57983159965897
C           -5.95775338082359       -1.11762343154896        6.43191442003457
C           -4.18259445444396        0.21175565728919        5.32458375638370
C           -2.34012488146299        1.46561304681388        4.53616186587159
C           -0.82882472942685        1.44375193222916        4.37530742084062
C            1.62174585028841        2.39344326146862        2.12310955920864
C            0.79109638024686        2.24841418385563        0.84059446029880
C            2.14588877854855        3.65164876793115       -0.59659902408322
C            3.24448401639147        3.69110722887368       -1.65767000113963
C            3.28667540477931        5.06189713503748       -2.37457999806715
C            2.01328887704938        5.40368186828745       -3.14610672974205
C            4.50094221109147        5.15261934336275       -3.29392954601244
C            4.39982824806241        1.93392708991327       -2.78067221722601
C            4.56591525926964        0.85084841047077       -3.86338934985633
C            5.49951387495994       -0.24960026919447       -3.35001192092409
C            5.88288584794079       -1.20368754628044       -4.47871635880386
C            7.74204274703333       -0.63292322723109       -5.92898220359169
C            8.19857307240826        0.11547361619656       -7.07247636422749
C            8.75104626229862        0.59456206446906       -8.02957809358774
C            9.39673181313062        1.20753005469311       -9.18884802359373
C            9.21107416329217        1.12637212368920      -11.65017948322171
C            7.24585621084894        1.39445698879401      -10.33346064169001
C            9.53220375106549        2.72413439273960       -8.93307843738815
C           10.79726064727327        0.58124080142082       -9.27908683157800
C            5.55732632791350        0.49849447378734       -6.16431819960364
C            5.15092970207564        1.53152387948169       -5.10876701435863
C            1.97077537613710        2.20610567880435       -3.20323272854225
C            0.03346657372893        0.93178610933204        0.69252851543345
C           -0.89961447701989        0.96379164735715       -0.53439441918202
C           -1.86176023735810       -0.23414045881601       -0.50103696809696
C           -3.51113529996221        1.12220061589800        0.54343239085559
C           -2.59349942267669        2.33399332686170        0.40412171837071
C            1.64603362458016        2.86885857271530        4.51701913941503
C            1.32700648939675        1.82116520412809        5.57927167202766
C           -0.18818850116833        1.73437638427693        5.74793086738464
C           -4.24835002359210       -2.39009911382740        3.03548763066732
C           -4.98494528254238       -3.23465178524949        2.16859785806321
C           -4.91597806631819       -3.08629252839100        0.78702176631899
C           -4.15047786075562       -2.05954687575702        0.27719966336174
C           -3.43378673661633       -1.20242161391834        1.12444106118449
C           -3.45301894240426       -1.38737575004659        2.49122017893224
F            3.36731754330679        0.23301668696929       -4.22716946188086
H          -10.02137273950031       -3.83117023813417        6.25475530663152
H           -8.88445601541598       -2.56517120335126        6.73616710772682
H           -9.98411630358908       -2.28522593199025        5.38162593340309
H           -7.74629140549993       -2.79625411863559        4.49232571330770
H           -9.81589408859438       -4.27585091000916        2.09591838001609
H          -10.64632524602538       -3.34325213322016        3.36437614618757
H           -9.12531156789580       -2.72546621671451        2.65128935685820
H           -7.68219148171040       -6.72181502876376        8.05708108734949
H           -5.21963515715592       -6.96552332368859        7.65784227328544
H           -4.18553544807858       -5.58657819046541        5.84788871706853
H           -7.19297601391536       -5.54168673811471        3.08904009269965
H           -6.72886474409466       -5.08588465304458        1.44293781842305
H           -5.02022592784989       -6.71808672664599        3.38952313681885
H           -5.85758105627963       -7.34319229827648        1.96653993924171
H           -4.50788682107491       -6.21559680835820        1.77443869541560
H           -3.95101474938277       -3.07039699725230        6.38292081987235
H           -2.82175742852400       -2.12680181538587        5.40085600309236
H           -2.68238560656378       -0.72119699833187        7.45297841362777
H           -4.09541928137442        0.17223989673372        8.01959749639475
H           -3.99936237395820       -1.57073082316563        8.26868858059020
H           -6.47368466585296       -1.07055824213100        5.48189835918242
H           -6.19672905234334       -2.06470389483795        6.90166216157360
H           -6.32877913215351       -0.31625825947004        7.06011862908936
H           -4.55918003763671        1.13296343912072        5.78001198660942
H           -4.67153806231845        0.08446129715696        4.35392449170079
H           -0.51886096313059        0.44786825911580        4.03900747099564
H           -0.87853025753590        3.30667313160958        3.54380339655139
H            0.08812086863873        3.08784069991124        0.82244336329134
H            2.23919120999294        1.62844661081576       -0.54229507373144
H            4.18554407641959        3.60611042893640       -1.09318584678115
H            3.39363614710719        5.79191405185479       -1.56581600562726
H            2.05764453685994        6.44656857166134       -3.45285314928021
H            1.91315682197403        4.79335749531321       -4.03815813757634
H            1.13558712216297        5.27768704251526       -2.51552946075600
H            4.40006404298812        4.46058817023541       -4.12762168768572
H            4.58792324163731        6.15960066865412       -3.69481009449380
H            5.41472177037471        4.90716393002511       -2.75718144988332
H            6.38504733146805        0.22689500322329       -2.92888303718080
H            4.99458996639090       -0.80464570880926       -2.55835867688381
H            4.99216808816512       -1.73488214724090       -4.83160045187417
H            6.62367923992516       -1.92581616944925       -4.13083325218024
H           10.14736189462965        0.58321830076394      -11.73619397687031
H            8.53814398670541        0.76181319031366      -12.42518447929008
H            9.39462214495326        2.19579507294221      -11.83526491017589
H            6.81885393809498        1.23690656970110       -9.34518917046830
H            7.19731124954070        2.46594759363764      -10.57914146063440
H            6.64264673721272        0.84973668974340      -11.05935323622570
H            9.95267493827127        3.20731806002595       -9.81264743789972
H            8.56686988517299        3.17036523225094       -8.70765611371549
H           10.19661479885476        2.89517843346320       -8.08983435861040
H           11.26833330869554        0.61844000696818       -8.29978701101632
H           10.72093000123993       -0.45853513921598       -9.58384907772615
H           11.42028149746688        1.12514643313853       -9.98236080452958
H            6.05339361836063        0.99610357672133       -6.99745006794768
H            4.66501130147869       -0.01896244209097       -6.53009330164570
H            4.41134725587206        2.20948777810415       -5.53485823773986
H            6.02072809329991        2.10737847795298       -4.79075585012018
H            1.19858352248129        2.85744401528786       -2.81085682541582
H            2.02823379020331        2.32623247955078       -4.28440440483556
H            1.69669284549455        1.17500586001922       -2.98612719506590
H            0.73986905829063        0.10977815817176        0.57392065047916
H           -0.56995524811055        0.75590490348388        1.58033964599688
H           -0.31116010109195        0.94477207028871       -1.45651942780838
H           -1.30661948497758       -1.16831477724750       -0.41806965264537
H           -2.44080696283530       -0.23843010064482       -1.44072457799676
H           -4.18448090425051        1.05727750716222       -0.32998638833575
H           -4.11703581806719        1.23917730440485        1.44332887685918
H           -2.09147175830141        2.51191436027195        1.36180069678503
H           -3.16817896055854        3.21983477037434        0.12871382482367
H            2.71062633452339        2.90905925287897        4.28800944040604
H            1.31032282921076        3.85875238426881        4.84768143630545
H            1.80041873663147        2.09939799624294        6.51916899586635
H            1.72331833337258        0.85536483568670        5.26202252677657
H           -0.57356202179429        2.68278898050650        6.13090801177832
H           -0.45621386660920        0.94293453129219        6.44664386444530
H           -5.45803353802386       -3.74312440936467        0.12362426107520
H           -4.10775482011279       -1.90669812237490       -0.79176493795593
H           -2.85146066274331       -0.74286685060528        3.10729417365823
