151
 energy: -221.323860781347 gnorm: 0.004124331847 xtb: 6.7.1 (edcfbbe)
C           -5.66184106034793       -5.64512388941010        4.37655553397714
N           -4.40965428580953       -7.12660536556241        2.34961325903599
O           -6.73906972558527       -5.28025091421611        2.19425743451038
C           -5.54755390589178       -5.09293513306228        2.95548133033644
N           -4.50109262727301       -3.07492148084618        0.35776122119434
O           -0.36598999269686       -0.39783578638720        3.33409689978531
C           -7.83939512575516       -4.50833063725597        2.62367707703060
N            1.15306108499736        2.74524891205150        2.73982605902885
O            5.24084479807743       -1.71178561728364       -4.31922012233287
C           -4.44739856509502       -5.80971228183353        2.19729030203215
N            2.42390104146226        3.23758234526603        2.42790037558302
O            4.52925953103725        3.35699369766574       -3.18815649162413
C           -3.48084703619283       -7.82775880721819        1.72674331389581
N            2.35203751130472        4.35826850443945       -1.04504772376232
O            1.49431219417722        6.44115000027391       -1.29040205651570
C           -2.50317430298618       -7.25099725774903        0.93027948591895
N            2.74339702831991        4.58211777678586       -3.79519602639152
O           -0.98378245170481        4.32968854539171       -0.96822505778751
C           -2.53656849944202       -5.87985420170906        0.76339480497525
N            3.37252426782844       -0.56147892751790       -4.91532464547617
O            3.89528385713373        4.10733678841442        0.98644444600179
C           -3.53409117761684       -5.12654926342589        1.38592095021792
N            3.51661044821053       -2.59450585647253        0.43778751280004
O           -0.91954498674197        1.60264667724448        4.18114256795219
C           -3.53612757196727       -3.68029177865622        1.13065629557171
N           -2.12955597443765        1.88802023339957       -0.21453618620195
C           -5.57176198846814       -3.74430017558328       -0.33822736876651
C           -5.13384747603190       -4.18413937863990       -1.73459258620492
C           -2.54243851398464       -2.78008754238577        1.44539033784147
C           -1.36054377606243       -3.01659116184363        2.32742849083133
C           -1.52011626772644       -2.50184307425953        3.77785477157505
C           -0.32243557358291       -2.98031782460785        4.60309279516193
C           -2.81212925853680       -3.03661794570638        4.39544463372550
C           -1.59092977060983       -0.97131212084675        3.82195197562543
C           -0.15763156238352        0.87988579218786        3.57788222933008
C            1.20569598753761        1.32469270524997        3.07613727713324
C            2.74172041944669        3.75829733824141        1.23245644953743
C            1.65822763123002        3.97589075564093        0.16876049162374
C            2.25910912754413        5.55719823418110       -1.63817726980899
C            3.17147000049837        5.63878697852698       -2.87695882203844
C            3.21819716533189        7.02961215620254       -3.52145328782154
C            4.00040538036061        6.98619966636223       -4.83256102214736
C            3.88493026266033        7.99996942542060       -2.54706414305839
C            3.51043979273625        3.49120092347944       -3.87326014596115
C            3.10641371639849        2.29372125563307       -4.74978821266217
C            2.30061250229327        1.33859075395744       -3.85553160922248
C            2.09030699199781       -0.00797983124100       -4.54913799447148
C            4.08221632066319       -1.36468729927482       -4.09123847801140
C            3.39176081617654       -1.79492086551411       -2.90306001268321
C            2.98683450768907       -2.08151389772471       -1.80529864993555
C            2.40545857732740       -2.37748689410891       -0.49716264069329
C            4.42191078021112       -1.46925367588921        0.54178240591083
C            3.14439951102782       -3.07799844129065        1.75092431471019
C            1.48288227419327       -1.19807022765782       -0.11743853537193
C            1.57105364092047       -3.65657227555931       -0.65947760478444
C            4.06249483072218        0.24054824106064       -5.90165010461625
C            4.36425770300233        1.62217052983758       -5.31431469706143
C            1.44152602057136        4.76185089293761       -4.40747926149267
C            0.74813335199113        2.77897454373782       -0.12546796722056
C           -0.28711262221313        3.11865266233099       -1.21126295661792
C           -1.27263404620905        1.95388797204539       -1.38236455815954
C           -2.89760571195555        3.11067623781987       -0.09345330489827
C           -1.90076179658761        4.25135879627137        0.11008658633350
C            3.44942590143647        3.05783368533071        3.44942702721811
C            3.59489985162433        1.57226225081787        3.76731608075722
C            2.23609837666848        1.01172085867783        4.17967460797886
C           -2.88611541249808       -1.55991067936991        0.79325784219026
C           -4.12102845735612       -1.78121050455902        0.13355260296145
C           -4.74094735084513       -0.76715407354802       -0.58814332957805
C           -4.10265281930273        0.45050031013896       -0.68094212093008
C           -2.84813695804150        0.66408228102858       -0.08944354145741
C           -2.24166961970018       -0.33316058434579        0.64670243598533
F            2.31760921329660        2.67476465666170       -5.83746539619842
H           -5.98452985976778       -6.68073969671579        4.32815311527572
H           -4.69173741463943       -5.60070845424622        4.86181300622899
H           -6.37046747761784       -5.06596229442638        4.96122262501351
H           -5.32127195742984       -4.01426608065284        2.98893624042751
H           -7.56238794083209       -3.45151945854093        2.71140724465492
H           -8.60146879778065       -4.62571747604781        1.85644207395492
H           -8.23258729961336       -4.86033889131707        3.58076899863957
H           -3.52202781425790       -8.89704025043678        1.88501142513404
H           -1.74827925713578       -7.85417085027101        0.45271598125779
H           -1.80897582500813       -5.37878694166724        0.14145279214614
H           -5.88768475753436       -4.61149192395733        0.24481637833413
H           -6.41545414733869       -3.05367540247799       -0.41113697655217
H           -4.30626727499078       -4.88645069611143       -1.66548510289868
H           -5.96005103185931       -4.67009717282880       -2.24443502775620
H           -4.81322848426210       -3.32533731245772       -2.31988643322125
H           -1.16687885970718       -4.08970692829874        2.37971137030298
H           -0.48881650404749       -2.52692747465505        1.89189895326654
H           -0.34497878255309       -4.06245603746832        4.70401388494935
H            0.61185394016376       -2.69606074987913        4.12548828310448
H           -0.34776716581330       -2.54314986342600        5.59894624620988
H           -2.86441194673429       -2.78564270233580        5.45175387239947
H           -3.67787466970295       -2.60714254398933        3.89814981343635
H           -2.85380266090139       -4.11720977466638        4.29098810887008
H           -1.74877402949798       -0.62099091380433        4.84705446467369
H           -2.41186209599635       -0.59847675487387        3.20386214545005
H            1.45984978423381        0.77089730488451        2.16765053330169
H            0.75768709330173        3.25960978528372        3.52935052929832
H            1.04766077003587        4.83729168761113        0.46553541128467
H            3.14448889859619        3.77545031922467       -1.28977385809180
H            4.18544279483087        5.37287242659699       -2.55548849268755
H            2.19754586474521        7.37582677916011       -3.70642704309115
H            4.99120011574592        6.56942522533381       -4.66221266592138
H            3.49838526440255        6.37861028152570       -5.57973965599951
H            4.11255013755803        7.99159167381213       -5.22798283645347
H            3.90003362836142        9.00116683045513       -2.96770264108976
H            3.33837371549457        8.02910431234934       -1.60814557577827
H            4.90848290709274        7.69127559626082       -2.34424619398689
H            2.87468642261697        1.18730779019390       -2.93921041108762
H            1.33978562195135        1.78493393086675       -3.59996393546898
H            1.50831461693702        0.13244197434946       -5.46350926356353
H            1.56668859002110       -0.69699799020588       -3.88690840338213
H            4.67653191061148       -1.10367056941305       -0.45206371690894
H            4.01198220708267       -0.63377537508497        1.13195973445598
H            5.33938571162600       -1.80543068502548        1.02453001123975
H            2.53695239473028       -2.36161628566956        2.32525825096724
H            2.60830938138676       -4.01857391088596        1.66650723177479
H            4.06237048995632       -3.26217780756726        2.30710125335226
H            0.64440731780467       -1.14552884479267       -0.80639004935409
H            1.09566835291153       -1.33967219156551        0.88835265677321
H            2.03013357027379       -0.25891283093026       -0.16161926885819
H            0.97210803185409       -3.84060475283726        0.22706033112033
H            0.90248222104801       -3.54256524379955       -1.50903335058185
H            2.22790035859147       -4.50192105328055       -0.84134902087738
H            4.99410612748844       -0.26105227618606       -6.16681065902612
H            3.42847569492420        0.33216671510358       -6.78645803050891
H            4.78998993450492        2.26917348169594       -6.08175349133093
H            5.08652026183143        1.53175140550349       -4.50144772450107
H            0.88643893523272        3.82724675108065       -4.44325815592687
H            0.87785008509560        5.47161720671091       -3.80549806425553
H            1.53263021010694        5.14568411620197       -5.42554932739695
H            1.35272295946106        1.94662562658963       -0.48624464891436
H            0.22294401323297        2.48176931542809        0.77830132442217
H            0.22892306745154        3.30989031799057       -2.15756652354742
H           -0.72785234462850        1.01442433824186       -1.47836118214938
H           -1.86164512630222        2.11931857747885       -2.30394474311228
H           -3.50259654149475        3.32345725384996       -0.99233690997411
H           -3.55513053498552        3.03444293397369        0.77331572835630
H           -1.36911116637144        4.10391058064148        1.05777943204471
H           -2.40602809499145        5.21795204773192        0.12413566372796
H            4.37578597871479        3.47746343070442        3.05896138263422
H            3.14740510082964        3.61253703315449        4.34343568404070
H            4.32072725214636        1.43908286698973        4.56793626142431
H            3.96204463300620        1.05057167242036        2.88105323519427
H            1.91060277304603        1.47878344162597        5.11261040909446
H            2.29118116259946       -0.06538961274133        4.33392681544776
H           -5.69058507542203       -0.92183457791404       -1.07710896519483
H           -4.56814523162630        1.24861143663398       -1.23997272995857
H           -1.27246627915159       -0.14781352639192        1.07922388145266
