151
 energy: -221.321014473177 gnorm: 0.008066839660 xtb: 6.7.1 (edcfbbe)
C           -7.78604945892563       -5.08924230714712        4.26485639054741
N           -5.57177241302427       -6.49120496958824        5.27499630294264
O           -6.65403985007242       -6.42304643957624        2.53805804488302
C           -6.53248131691847       -5.30510074392060        3.41840590204475
N           -3.66977745529743       -4.38940537269697        1.72807897506379
O           -3.17839097687267        0.89655688840716        3.98571444137072
C           -7.51647094203940       -6.22632363840810        1.44094415180884
N           -1.27554026188386        3.59947438499291        2.67883776868921
O            7.65105243283412        0.03713959638961       -6.01730779459571
C           -5.34221549174695       -5.61770134822242        4.30416540892580
N           -0.15447095731483        4.33728151385368        3.06229618814461
O            4.28428513851918        2.25617097644438       -2.28124322474850
C           -4.58833169795691       -6.84638982952671        6.08044042224236
N            2.43270340994039        3.59567555685509        0.57391136008068
O            2.33474338726395        5.48497474171536       -0.66084794176239
C           -3.30283532122260       -6.33913636876644        5.97348897921639
N            4.62797697938457        4.46473550539382       -1.99985463072227
O           -0.25699178465019        2.54823103229656       -1.32376544001995
C           -3.05598286023827       -5.42010389965134        4.97180282389942
N            6.13401234282517        1.70678518948490       -6.26699224997272
O            2.00440343919902        4.87006296398737        2.81220274122162
C           -4.08123030379631       -5.04336667162010        4.10186554665666
N            2.45036583885418       -2.08142398914856       -6.77443489347667
O           -3.81405255527429        2.50889885807406        2.56317208795504
C           -3.74446705092487       -4.06078343193309        3.06367809304206
N           -1.44080278287711        0.30158846509834       -0.16405145778367
C           -3.86117303188696       -5.69769155115958        1.15456889034798
C           -2.53746889520054       -6.44798409558323        1.02360625155388
C           -3.30773588040361       -2.76903445586661        3.26122078892484
C           -3.30342057137179       -2.00334320996691        4.54410740349614
C           -4.48878490526344       -1.02206511457812        4.71476454211923
C           -4.48195672677535       -0.48848649377620        6.14931046622636
C           -5.81172399705812       -1.73754456735792        4.44104359206290
C           -4.38629908280451        0.15802623356513        3.74149386347623
C           -3.01527691255872        2.03465874667551        3.34088509449153
C           -1.72089675069233        2.71522009494056        3.75208444996507
C            1.00985337081032        4.28512621618426        2.39582919672652
C            1.06284089596797        3.57499629775043        1.03519654262053
C            2.96261301987526        4.53540752502622       -0.21366253836744
C            4.43199565056771        4.26136764551736       -0.56690290134725
C            5.42319077360953        5.05062465024352        0.30654216309167
C            6.85502530710588        4.73050129955445       -0.11949254179320
C            5.22301063499842        4.67375363043441        1.77249874737168
C            4.55250112711771        3.36399420377205       -2.75766756771183
C            4.98850895664158        3.37614694885164       -4.23185079356673
C            4.14579938052662        2.38513536422971       -5.03883549439838
C            4.76794538806557        2.14811955510494       -6.41517371976701
C            6.51153976453175        0.41183192674926       -6.29998217645317
C            5.50035471705191       -0.52583428914364       -6.70965997114602
C            4.78572200100847       -1.45753222329042       -6.98304104499253
C            3.77718471750425       -2.47429860597251       -7.27960913924976
C            1.92227958309749       -0.87272813640610       -7.37989587900668
C            2.38325006786934       -1.98948137232907       -5.32585466026056
C            3.72228712423568       -2.68036308897642       -8.80342906823778
C            4.21224504249828       -3.79938018187607       -6.63198107415743
C            6.98171754064764        2.69644716622808       -5.64292415891437
C            6.47568559686089        2.98518823682951       -4.22758805239317
C            4.65682582883357        5.82133744178010       -2.50964750812769
C            0.57042349523161        2.13081083268127        0.96007017890911
C            0.50742626032746        1.66980007125277       -0.51014792291983
C           -0.05835598432919        0.24572728628699       -0.58745224553219
C           -2.21361216737899        1.10508925520815       -1.08831553457116
C           -1.64938524663608        2.52545775206483       -1.03679107972309
C           -0.28056728196428        5.12618540045292        4.28246797295578
C           -0.68794471287153        4.22572342901501        5.44503808235825
C           -1.96295188070067        3.47439236509328        5.07126879673925
C           -2.90308438358338       -2.28531637631813        1.98420051272971
C           -3.15008459872865       -3.32230794527004        1.05143905855002
C           -2.86717294606369       -3.15912596972971       -0.30118821397615
C           -2.32084537126260       -1.96210047635898       -0.70973176380401
C           -2.02665556595342       -0.94523540483541        0.21007813093629
C           -2.30305000187294       -1.10485569151904        1.55020992172749
F            4.86944744094821        4.62088996892280       -4.85251126986367
H           -8.64141464326679       -4.86097990222241        3.63668152128142
H           -7.98249569264944       -5.99145129373221        4.83671008324117
H           -7.62597808477183       -4.26179181180229        4.94858283284573
H           -6.32022568098938       -4.40443507348581        2.81971609177416
H           -7.47466433277609       -7.14974239944562        0.86627114590306
H           -8.54860946183681       -6.04263589658575        1.75602314581861
H           -7.17607340714368       -5.38691868936268        0.82266170256137
H           -4.85085806334788       -7.56596632158781        6.84277179032482
H           -2.52397901970606       -6.65452553980396        6.64852526269054
H           -2.07280172758936       -4.99232560563443        4.83943238026040
H           -4.54933982622356       -6.26446597940281        1.78333511600562
H           -4.31618400369464       -5.57230441327972        0.16855979746245
H           -1.84966699973901       -5.89782465529883        0.38550751324663
H           -2.07801866019035       -6.57307275815560        2.00164453835782
H           -2.71207323736669       -7.42875105271252        0.59214977502742
H           -3.34195781322721       -2.71056043123992        5.37415962292920
H           -2.37703690067687       -1.43177183700422        4.62016957519979
H           -4.64960213328919       -1.29941852221925        6.85221034187409
H           -3.52750410194835       -0.02115813166631        6.37559353126832
H           -5.26965509042779        0.24948314912117        6.28172279152662
H           -5.87656189087297       -2.03678179221671        3.39830108268406
H           -5.88309658896144       -2.62747002846091        5.06063298254004
H           -6.65273612994229       -1.08681965143228        4.66458333460338
H           -5.23662164942277        0.83735939907066        3.86697130966705
H           -4.37787128541487       -0.18504463561443        2.70315161415538
H           -0.94869011489421        1.95458928172275        3.90738310968929
H           -2.04116526107333        4.20746577679327        2.39899456197791
H            0.48459088820426        4.19611637151725        0.33784744180785
H            3.04098587351816        2.90102022995489        0.98294995294809
H            4.61979133789320        3.19488225303945       -0.40738617214711
H            5.23668779537311        6.12370484394843        0.19948113210341
H            7.04060191521731        3.66053559529348       -0.04484753383974
H            7.04059667237904        5.03972342293924       -1.14319385065545
H            7.55667210640788        5.24855401837381        0.52824649814780
H            5.39713997115731        3.61014923351720        1.91769745988255
H            5.93079658652038        5.22017576592611        2.38843248740276
H            4.21988436929928        4.91759156592473        2.11333091478508
H            4.09869282929160        1.45252229428712       -4.47353677327820
H            3.13395497279408        2.78028455378965       -5.14215879939359
H            4.77088633593037        3.08337885095942       -6.98241694358807
H            4.20001702674495        1.39801719774505       -6.96548675685959
H            2.51900219715237        0.02068947011696       -7.14349631111174
H            1.86443618113115       -0.98566760123739       -8.45752508738091
H            0.91290136566988       -0.71708037289129       -7.00264814374523
H            1.39988495959393       -1.61299430183683       -5.05266067633070
H            2.50047637620479       -2.97477886087446       -4.88282440878843
H            3.14116541125747       -1.31179158369046       -4.90077054322757
H            3.66763532644802       -1.73516963757910       -9.33535708830184
H            4.62077087120101       -3.19489761460010       -9.13160759385707
H            2.85437113067603       -3.28579997824715       -9.04633114455739
H            4.45737561150567       -3.67014194342585       -5.58230128643770
H            3.40816452702191       -4.52262974091590       -6.73135149268483
H            5.09804094184647       -4.17629801500973       -7.13579840992919
H            7.99915226008226        2.30354795704240       -5.60429824265734
H            6.95900002367654        3.60812146520723       -6.24560998690148
H            7.05990719617925        3.78944468947703       -3.78026928554611
H            6.57959568514145        2.08934447436348       -3.61235714730379
H            3.86305617033374        5.97545041998096       -3.23771376361819
H            4.47587633615711        6.50083670551479       -1.68403115318733
H            5.61702701881499        6.05201730286965       -2.96952593511617
H            1.25889586966598        1.47918961117468        1.49705352117100
H           -0.42089804999806        2.04257192005671        1.39339027313412
H            1.50824544828141        1.70218530031514       -0.95818937234715
H            0.49503497333870       -0.41485613337804        0.07928440666030
H            0.04745160682486       -0.12435400859933       -1.62205656069195
H           -2.16186419521834        0.72621901458241       -2.12731581772752
H           -3.25710420802507        1.11530962355334       -0.76400937785722
H           -1.84248875344541        2.94868824297873       -0.04363448204522
H           -2.10461840011797        3.15964567641312       -1.79872631364997
H            0.68236584985557        5.60396417980734        4.45975575157421
H           -1.04069602829376        5.89693241280913        4.11496998237133
H           -0.84906073736626        4.83295726383046        6.33426243276436
H            0.11382681402496        3.51537750703387        5.65041350897860
H           -2.78191406875262        4.18185905989691        4.92714832396636
H           -2.24355818199954        2.77239350834773        5.85367668418859
H           -3.06158769578248       -3.94390040322449       -1.01574759514162
H           -2.09648447050506       -1.80741699398461       -1.75489703997754
H           -2.03166852021919       -0.32390295431981        2.23968744028383
