151
 energy: -221.318377952724 gnorm: 0.007716068627 xtb: 6.7.1 (edcfbbe)
C           -8.35442269519016       -4.85152634179955        3.59816458342723
N           -7.04767021022660       -5.26470573456597        6.03416398445623
O           -6.62461472313938       -6.60503775111242        3.43771474717481
C           -6.86786505751479       -5.21474640946615        3.64007860016060
N           -3.28976814812706       -4.63788524791199        3.47280505626793
O           -3.88536129321722        1.07928283971453        2.82200425561081
C           -7.19042921058480       -7.14218917200559        2.25960625872721
N           -1.21332290939313        3.29349726411420        1.95532235048011
O            7.14399780026273        1.52596544311448       -7.46798666896805
C           -6.29695261254027       -4.89039149609396        5.00574477208265
N           -0.31700298951668        4.09490842596671        2.67113635047169
O            4.92678722666961        1.96721434184311       -1.35648254376673
C           -6.63690891390705       -5.02240297827592        7.26478594637380
N            2.91412506173795        3.11082164008432        1.30453000890001
O            2.70205240990403        4.80179337048188       -0.16447300554170
C           -5.44699833392807       -4.37107342149335        7.55078564800224
N            5.20635402114547        4.18875222682907       -1.11151331417418
O            1.18208574680977        1.03878096834344       -0.63929325030204
C           -4.65887010393711       -3.97691945408249        6.48639060298450
N            5.51011100187658        2.19867568700896       -6.04222649726387
O            1.80678977184117        4.58019533926231        3.22584857379184
C           -5.06826634408297       -4.24431826447267        5.17794227675181
N            4.41730581415505       -2.11066184483396       -9.84020521097115
O           -3.37917944660813        2.01253803739497        0.84551767318335
C           -4.16931724962798       -3.78797688403368        4.10412164094676
N           -0.24659550398443       -0.85175144844194        0.84250235363373
C           -3.27986189958732       -6.07691323726571        3.56608914756861
C           -3.63767359928243       -6.73428952941630        2.23666559601166
C           -3.90227720884745       -2.48133492877629        3.76264982333288
C           -4.59908566353720       -1.26958673582189        4.29437942276218
C           -5.58719827757003       -0.56729440451820        3.33258920686525
C           -6.42071591874636        0.43090539608924        4.14071441131320
C           -6.50368664447952       -1.59133895947428        2.66685721983528
C           -4.84454408603947        0.19476457697719        2.22742631358455
C           -3.20581018934051        1.89551071088946        2.03822383891771
C           -2.19527943334984        2.68884467309806        2.84976762576800
C            1.00953148075015        3.92507400229338        2.56015062206401
C            1.49257723806520        2.93447436633805        1.49552987740890
C            3.41078841548610        4.03418549763567        0.47865000357845
C            4.93766617781266        4.00194181482291        0.32132376792014
C            5.65068558093258        4.98540552168399        1.26064262801859
C            7.16579245130030        4.86267740281629        1.09225567841574
C            5.27057627126038        4.69049701919861        2.71189105554640
C            5.01310666281979        3.08976483652605       -1.85816074512467
C            4.96889173192292        3.18889095211691       -3.39456150061852
C            4.22306229015770        1.98825620645244       -3.98139485207454
C            4.17378583495793        2.10526571655635       -5.50623421503411
C            5.99193970992782        1.42606851519170       -7.03300726659267
C            5.07528174945151        0.47676988709282       -7.60667753123873
C            4.38818870728628       -0.29292081796760       -8.22998281314079
C            3.58079665745249       -1.24732773478005       -8.98988627789631
C            5.01752455826558       -1.42865903609384      -10.97438247129123
C            5.44052745924685       -2.83303007940219       -9.10464261149835
C            2.77242931821368       -2.11661626480186       -8.01183970426437
C            2.58604392240537       -0.44406526345137       -9.84524139271594
C            6.29573194159579        3.29472321762559       -5.52027776619970
C            6.37701362379310        3.24672157999900       -3.99396074068395
C            5.23285031857874        5.54660227453505       -1.61803829143999
C            1.21182796069743        1.46468602778319        1.79376668321952
C            1.66151199741085        0.57491728215122        0.61585282328267
C            1.19954899920256       -0.87205682193368        0.85774240433952
C           -0.73090998301504       -0.47467426971661       -0.47351070740169
C           -0.22856787366090        0.93448832458484       -0.78512218021276
C           -0.88977217572088        5.14176585517438        3.50615056681423
C           -1.89196950206098        4.53834774680866        4.48720347274470
C           -2.93087415400136        3.73182639786736        3.71157196790848
C           -2.78875088070945       -2.52287543776286        2.87396707889831
C           -2.42784207049043       -3.88642912798413        2.72358287729659
C           -1.31880340720890       -4.25675828769398        1.96967603369594
C           -0.59218837237043       -3.26909190069041        1.33809353225099
C           -0.94582861873883       -1.91923682487539        1.46653812144115
C           -2.02030236400101       -1.54696417980149        2.24826777535630
F            4.25326733665299        4.33174871192849       -3.78392685413271
H           -8.48951177373133       -3.83890424901580        3.96508859688291
H           -8.74176388137290       -4.90980549072750        2.58505487213067
H           -8.90318805373761       -5.52923111418672        4.24591386262973
H           -6.32201671748172       -4.64363747286886        2.86821538206446
H           -8.27085868610705       -7.27358392325426        2.35729753330953
H           -6.97939089228602       -6.50656771068396        1.39336578961046
H           -6.72162319394869       -8.11395534954739        2.12188253142474
H           -7.29951751957301       -5.36082335847032        8.05026482913982
H           -5.14950006026699       -4.17696316102200        8.56835959141722
H           -3.72059612965213       -3.46715839558901        6.65003384700072
H           -2.28854383098039       -6.40803762783163        3.89305080398220
H           -4.01463134108142       -6.36693603039985        4.32073888057987
H           -4.54326731577632       -6.29347243948649        1.83826551305889
H           -2.84442898731348       -6.60553580167863        1.50816341402710
H           -3.80975716722043       -7.79647546153145        2.38885508106257
H           -5.16376406181202       -1.56959746924437        5.17972727768819
H           -3.85025044758708       -0.53661660720990        4.60108997076556
H           -7.11971377324921        0.95520869579438        3.49319262294774
H           -6.98776165021884       -0.08453885716931        4.91106893575370
H           -5.77345600367318        1.16290655687239        4.61630182378779
H           -7.23626233080379       -1.09843438508546        2.03327142343926
H           -5.92421205251006       -2.27877672656428        2.05546893505304
H           -7.02710231508978       -2.16251392386795        3.42779551238113
H           -5.54121650285357        0.78356662198704        1.62216396442555
H           -4.31684727490333       -0.49572688506640        1.56259820039537
H           -1.66188196694506        1.99526107554431        3.50971943359075
H           -1.69389502742356        3.83692992560332        1.23617417750766
H            1.01267949493730        3.22043090855426        0.55160502532996
H            3.53046199401122        2.56966594340579        1.89044052910686
H            5.28531892611453        2.98941715099652        0.55323037388901
H            5.32017317560958        6.00237336507775        1.03409918582893
H            7.45792886249410        4.91505500638597        0.04846440106381
H            7.66920910635201        5.65553999176275        1.63786945893627
H            7.50200295266893        3.90587114347562        1.48589781949602
H            4.20698938913834        4.83981794468268        2.88658030121466
H            5.53272896821411        3.66879255852002        2.97687247871609
H            5.81733482256364        5.36070798843962        3.36953030877990
H            4.74299622416135        1.08004516802897       -3.67738080420896
H            3.21248237444194        1.95397644499666       -3.57190664997030
H            3.61461028334998        3.00844592999661       -5.77655968967249
H            3.67240560099692        1.23818655216517       -5.93583817482633
H            5.65052100076316       -2.14124891748323      -11.50074542155254
H            4.24702154464992       -1.09607617238257      -11.66533740808584
H            5.63989313163326       -0.56757836953457      -10.67934033819360
H            5.89841348225532       -3.55489019753838       -9.78272546859482
H            6.23113407856558       -2.17024178968050       -8.71094597785589
H            4.99899558010795       -3.38295543932471       -8.27505836857125
H            3.40123251420282       -2.54509597811822       -7.23673865557157
H            2.01075071487748       -1.51199589299169       -7.52688071931300
H            2.29418679679723       -2.91696052525768       -8.56913453831692
H            1.86296425394796        0.04204316819701       -9.19565713301588
H            3.08938236171293        0.32677553991934      -10.42230025597829
H            2.06342884471411       -1.11925419644856      -10.51639785326289
H            7.29298504193317        3.23076925519908       -5.96040618239563
H            5.82640812785498        4.23794662089714       -5.82531640561755
H            6.91665012392077        4.12406463093318       -3.63990308868561
H            6.91053970853364        2.35446576549511       -3.66624607476860
H            5.83732518161294        6.15754618439514       -0.95638277240648
H            5.66920084107900        5.58169106852934       -2.60924540263878
H            4.22002213568882        5.95164476859359       -1.65564136046000
H            1.74977417726427        1.15908654581089        2.69177444522540
H            0.14548975761716        1.31752327142162        1.94954655199522
H            2.75099983139061        0.61057816753359        0.49884612423676
H            1.54580624924282       -1.21879684484761        1.83345553526817
H            1.63162425017826       -1.51481930857321        0.06854228463810
H           -0.36956378449460       -1.17525917194680       -1.25053511371340
H           -1.82346074373990       -0.47552945122262       -0.47435770088752
H           -0.73976889575531        1.65302342272064       -0.13124787540928
H           -0.42673333166400        1.19455564431121       -1.82793276221812
H           -0.06377301918293        5.63177351780444        4.02103306011019
H           -1.38851902883829        5.86744056001240        2.85378079916909
H           -2.37190032999255        5.33647990362713        5.05182740475086
H           -1.36526414125074        3.88560305131089        5.18480397650208
H           -3.50929004696736        4.39216968092759        3.06043891399305
H           -3.61580312499891        3.22567596410694        4.39010618969591
H           -1.01613983826489       -5.28878314394999        1.88518787261097
H            0.26692111188855       -3.54023664418582        0.74249163911536
H           -2.21788695654691       -0.49754102766712        2.37725786346757
