151
 energy: -221.319450836065 gnorm: 0.006010597651 xtb: 6.7.1 (edcfbbe)
C           -8.24263516766226       -3.98368568810945        6.03342508304063
N           -6.42341490243131       -6.15394634895663        6.23338357619620
O           -8.22558385892376       -5.45856600617835        4.06066496601762
C           -7.47370777373393       -4.51477940266290        4.82457370730335
N           -5.22248353102006       -4.09508531888682        2.38355284856667
O           -2.44125531931770        0.29251359483308        4.75714172343609
C           -9.32370594806228       -4.92526280881550        3.35583973226734
N           -0.56996749388880        2.84686145263613        3.13740758781572
O            3.25752980798816       -0.83323132170702       -8.03673081552984
C           -6.23328284388488       -5.26696924076925        5.26682536224973
N            0.78269694695109        3.18684848076066        3.03721628077812
O            2.76204476261136        1.84533855486473       -3.39583510395560
C           -5.40648747745305       -6.87937007225939        6.66052104819774
N            1.71206922742597        2.90963295672144       -0.48086479046768
O            1.64853199473329        5.15010008264402       -0.78166050763798
C           -4.12495211084161       -6.76517399263965        6.14391881059509
N            3.06886266957331        4.07227741230811       -3.27073786594266
O           -1.68960972537407        2.63690347706879       -1.00416281810122
C           -3.91456014660473       -5.83646171215732        5.14241649848351
N            3.56428662291690        1.40099746020245       -7.76666313193531
O            2.70471209585264        3.17193244752464        1.89435729705339
C           -4.97819317289235       -5.06009213786978        4.67901639558126
N            8.87359448291777       -0.00410800072773       -7.40797149774155
O           -3.09951703612467        2.36587774949479        4.20826065153685
C           -4.69875253536196       -4.04528506761265        3.65745658771705
N           -2.73061829014107        0.38969152704000        0.30471653927856
C           -5.91673734021377       -5.22378147202408        1.81410790492350
C           -4.93385686542264       -6.26803072938373        1.28699186113189
C           -3.86475442985885       -2.95791343603794        3.79114653782110
C           -3.09453052840395       -2.54890974907880        5.00438112500839
C           -3.73610955730049       -1.43275757393228        5.86031398797417
C           -2.89775488367999       -1.25487664481795        7.13006053180278
C           -5.16848619698514       -1.80554297706579        6.23934593842083
C           -3.77680215803374       -0.10558448721767        5.09504615774107
C           -2.23842513691331        1.52353826296332        4.33348526533486
C           -0.75760768111694        1.76584496152333        4.10250848801488
C            1.48406377378713        3.04562564488195        1.90075651836277
C            0.72632583608349        2.83925454024714        0.57801677281761
C            2.17553198560850        4.06184180483003       -0.97904250566712
C            3.42169080889885        3.90378748800845       -1.86158044443275
C            4.54496479402406        4.84251094905539       -1.38958187024647
C            5.75403137226021        4.76320418404500       -2.31672583213281
C            4.95335927416935        4.44739589677583        0.02783551211026
C            2.81042356030537        2.94655674315456       -3.94940350242726
C            2.79553013155762        2.95617149937473       -5.48742799038572
C            1.91848552926564        1.83207323094088       -6.04240779211366
C            2.15801576990431        1.65652264028214       -7.54479125508180
C            3.99969209200458        0.12513564806079       -7.81347451569491
C            5.40446645414730       -0.07439856033492       -7.57680628396583
C            6.52071750797215       -0.39338202540281       -7.25759077299148
C            7.83113420531342       -0.82576770789983       -6.78137314860427
C           10.22735944343431       -0.35639058254566       -7.02855987486243
C            8.76513170287763        0.09947775454079       -8.84895150543019
C            7.82580259452107       -0.58002904620120       -5.26030897522075
C            7.93763473885533       -2.33836911837780       -7.06764848102025
C            4.40488601936591        2.51347230719281       -7.39178262982757
C            4.26943778182653        2.78766730123753       -5.89311746436122
C            2.82323328215949        5.40879971705674       -3.77688590279641
C           -0.05253065944533        1.53144428896423        0.47450748928791
C           -0.89632966267467        1.47521641882202       -0.81164252690414
C           -1.79173466851466        0.22766083375303       -0.78701623247565
C           -3.59738242148845        1.52548206316835        0.05262320378483
C           -2.72597059870400        2.77855500812438       -0.04408070261330
C            1.45511090631043        3.55472566655068        4.27705319005733
C            1.34998628898827        2.41302981380716        5.28234144777094
C           -0.12288139498436        2.06556248345226        5.47611367530100
C           -3.85760308508492       -2.30548695269787        2.52456621140049
C           -4.71043799723663       -3.04756301857093        1.66931618729071
C           -4.91327976924158       -2.65999685186977        0.34812146293552
C           -4.27166367122412       -1.52808205825384       -0.10714605259180
C           -3.41161776626597       -0.79533112047259        0.72436012807715
C           -3.19023847033990       -1.18961486078445        2.02584372991656
F            2.31591275540494        4.14752278167173       -6.03582908755026
H           -7.59739308488791       -3.32968771996785        6.61064010320086
H           -9.11541197108331       -3.41987063740675        5.71705088950791
H           -8.55158090252454       -4.82015557126792        6.65247820372202
H           -7.18718051676940       -3.67678205628995        4.16823483382333
H          -10.09902967691944       -4.55696563392881        4.02669619372344
H           -9.00570726316271       -4.11577663626943        2.69436641808293
H           -9.72225560810192       -5.74448475223572        2.76652518882751
H           -5.63635437242082       -7.57901650889892        7.45231914193119
H           -3.32187467995572       -7.38146995874811        6.51372485476215
H           -2.93723760506780       -5.70988323898186        4.70015944269281
H           -6.55712548345750       -5.67273517088114        2.57595977765347
H           -6.54696772903668       -4.85889772193863        1.00045943371091
H           -5.47689127643315       -7.08132263781029        0.81552517663841
H           -4.26132925443460       -5.82195648662825        0.55781619507854
H           -4.34150343270574       -6.67241896009481        2.10468577971226
H           -2.97016837217990       -3.41927083736018        5.65143668311017
H           -2.10620407273684       -2.20845597880619        4.69004200617779
H           -2.93251492613760       -2.15934631280557        7.73166997881774
H           -1.86197798753487       -1.04951975919378        6.87384492165671
H           -3.27751160616774       -0.43009556061508        7.72864848221731
H           -5.59232804835780       -1.06514266300461        6.91295794606077
H           -5.79290271460284       -1.86519133165573        5.35183712292833
H           -5.17878163679686       -2.77352353902913        6.73330477046737
H           -4.23180442295862        0.68209769512225        5.70094410981356
H           -4.35341704666053       -0.20350053638008        4.17226816266404
H           -0.30391339480228        0.86015818344394        3.68702328176403
H           -1.12351046196916        3.65562338946921        3.42456362843262
H            0.05071237961645        3.69291594676286        0.44890700379100
H            2.23729706856467        2.06571664331854       -0.65233873038321
H            3.78211418432143        2.87363205007324       -1.77727582660127
H            4.16497711489094        5.86713017451730       -1.35177111188389
H            5.50947330308731        5.09166331756199       -3.32075674760230
H            6.54940532723504        5.39469228925286       -1.93273931626202
H            6.11899856107833        3.74003804004572       -2.36486193063031
H            4.10537170134134        4.48566752431389        0.70632624346674
H            5.34795828971138        3.43466713139263        0.04573364475953
H            5.71855763927854        5.12556894525082        0.39568090822551
H            2.16593192872184        0.91126567416694       -5.51408193946879
H            0.87202531895032        2.06914742029414       -5.85111566041554
H            1.87237518169943        2.56336085638489       -8.08239565814720
H            1.58687300169678        0.80835447597257       -7.92335024368857
H           10.55691030106278       -1.31856983070621       -7.44865739426428
H           10.89286263879938        0.42035816894503       -7.40377799913409
H           10.31901011809092       -0.38822037946092       -5.94737101453176
H            9.05872556297413       -0.82053274683586       -9.37534620053451
H            7.74233372955197        0.34431966660966       -9.12310359570147
H            9.41877545312859        0.90347580361851       -9.18244647432858
H            6.88593555736728       -0.92727975850198       -4.83738424881310
H            8.63550498352804       -1.12054847566260       -4.77883868258713
H            7.93145337471600        0.48282607197885       -5.06209611279512
H            7.94281610836505       -2.52616904424361       -8.13843883062441
H            8.84298211397904       -2.74560921348932       -6.62669886026505
H            7.07934957197537       -2.84751128253483       -6.63844509098544
H            5.44278703971765        2.28911737100584       -7.63688923250153
H            4.07696653953297        3.38853154872899       -7.95896686731571
H            4.82424375689966        3.68685519494729       -5.62595336395618
H            4.67245111525955        1.94410206866597       -5.33067531339799
H            1.79120022834053        5.50734587236106       -4.11112557920760
H            2.97876783242524        6.11631810574682       -2.97148187381651
H            3.48815685925638        5.65017825454098       -4.60484885059468
H            0.64173912034775        0.69154523086613        0.46521039307707
H           -0.72133490306389        1.43474831816039        1.32578103746472
H           -0.24082674726707        1.45429751005377       -1.68956090878846
H           -1.18988630062506       -0.66438125090863       -0.61121627699184
H           -2.29426718492388        0.13107585048395       -1.76635638763864
H           -4.17760665749844        1.40484486093315       -0.88035602965884
H           -4.28999725585095        1.63434409944589        0.88966352008496
H           -2.30462348671671        3.00007756630363        0.94370582538194
H           -3.31374999881377        3.63179298738692       -0.38630705033160
H            2.49167989002670        3.77946458800930        4.02916150310352
H            0.97042018917427        4.45460232720760        4.66916215850240
H            1.79849795840041        2.71389170379943        6.22744378876642
H            1.89085959705854        1.54657414006028        4.89965348395965
H           -0.64688376530462        2.90779790410609        5.93382631388846
H           -0.23517390280979        1.19527285442723        6.12101711747637
H           -5.55681488658843       -3.22197649961117       -0.31146555910450
H           -4.42559901547269       -1.20222981656560       -1.12597275577822
H           -2.49665393057250       -0.62918835323140        2.62827590686408
