151
 energy: -221.323619034720 gnorm: 0.008813274215 xtb: 6.7.1 (edcfbbe)
C           -7.53661664831281       -4.95258282715402        3.65523699535004
N           -5.38569272766736       -6.74226755657802        4.05790323012426
O           -6.65625221886152       -5.85917640140786        1.54177064897952
C           -6.37023242780207       -5.03652499018437        2.67149924798214
N           -3.79643685336718       -3.82345226271694        1.02181690524774
O           -2.23666686276380        0.32698100106964        4.72476170089091
C           -7.61020063937140       -5.33062149407197        0.64583411247342
N           -0.30661700057343        3.19908022491552        3.83970296215743
O            0.95348491065257       -0.69724690084186       -5.91453081656167
C           -5.15325976303674       -5.66504082584683        3.32309635679602
N            1.02221135112623        3.60975876050521        3.99041612936703
O            3.97225057176536        2.86875036889896       -1.75028055007484
C           -4.37335599151386       -7.36831245159972        4.63172992003601
N            2.30234847412276        4.21918264456703        0.62541667239285
O            1.61565398905686        6.28648274821294        0.01330764438043
C           -3.05656651254412       -6.95436295004930        4.50678979796889
N            3.22844832158964        4.93372234230238       -2.25788435939095
O           -1.02990663702729        3.90090601774599       -0.28812485734656
C           -2.80428835179283       -5.82608695073378        3.74885939560114
N            2.48243729860922        0.96844291717859       -5.75247637004997
O            3.01162701481147        4.13486659136137        3.11211095710259
C           -3.86104668983629       -5.15342021445973        3.13423344880843
N            5.94228317477869       -3.23484444771422       -5.94938655900465
O           -2.90761358067819        2.41075988146927        4.24237860946272
C           -3.56970465714183       -3.93292725341116        2.37748248666173
N           -1.88655075278591        1.30504716192888        0.28040101409492
C           -4.04174928716374       -4.92368850254604        0.12180188694172
C           -2.74158844598541       -5.41972003985450       -0.51129592175178
C           -3.03221644694303       -2.76686791241196        2.87435247434500
C           -2.62799195277739       -2.50198949155764        4.28939019706000
C           -3.59679986113010       -1.63785834525132        5.12966876517584
C           -3.14837766500491       -1.69623796980740        6.59339979953471
C           -5.02504167567209       -2.16602128317226        5.00655023861189
C           -3.57965996610378       -0.17498670658282        4.66877183893318
C           -2.03299527184764        1.60410803190760        4.46703917262648
C           -0.55169442122685        1.93983737455658        4.53891113458713
C            1.82680042443015        3.86444742114360        2.94738533265598
C            1.22847184025080        3.88863362295727        1.53446924050948
C            2.43045188069871        5.37299184114864       -0.03096310008571
C            3.66648420234768        5.40363003221848       -0.94082810040612
C            4.34722206648530        6.77736846901974       -0.97255067590514
C            5.62142550842907        6.71574178088616       -1.81125462540775
C            4.67514127283101        7.19934612926183        0.46016370855088
C            3.47879026660036        3.65562489477492       -2.56390854023176
C            3.16551888162293        3.12575139564385       -3.97205791380119
C            1.75032691474865        2.53959311719858       -4.03212586480364
C            1.48890911021250        1.96674487806168       -5.42602618871797
C            2.12555923176805       -0.31183009423239       -5.94784786845875
C            3.18542622837760       -1.24598154569312       -6.23507562970520
C            3.89416411162055       -2.18363362697319       -6.49980554218257
C            4.76109543942852       -3.31737003124255       -6.81978379881245
C            6.76398729855832       -4.42580059449587       -5.89245217949618
C            6.76126759909215       -2.06281970001977       -6.19092991453066
C            3.93998413726669       -4.57961685144824       -6.51183186836182
C            5.07700978291610       -3.27340525884722       -8.33037956968744
C            3.83946811116553        1.45783812842962       -5.73379364265517
C            4.18247013747877        2.04675541824909       -4.36386699509712
C            2.42455459704179        5.86345053218912       -3.02718591376236
C            0.57205616996326        2.59208204916600        1.05894598402233
C           -0.12317526407728        2.80845579661272       -0.29689594044248
C           -0.86189515291623        1.53125294959545       -0.71497616625998
C           -2.86718758420049        2.37190688247465        0.24983821422147
C           -2.15575906311864        3.69178829165079        0.55130614815387
C            1.51396057262463        3.73342322880144        5.35692169218278
C            1.34401806927303        2.40802663688446        6.09066072017362
C           -0.12171728124262        1.98256427209893        6.01825371451929
C           -2.90349502125013       -1.88644885292518        1.75968115610210
C           -3.38639955608481       -2.58285585808897        0.62376873383827
C           -3.41655445334551       -1.98481789175835       -0.63361962448644
C           -2.94568446582581       -0.69596776281499       -0.75648845526513
C           -2.42351818512897       -0.01193752148763        0.35111795692046
C           -2.39256251253168       -0.60279960748192        1.59677816808620
F            3.27853864783216        4.15535564289123       -4.91589379387515
H           -7.22958446929450       -4.38893018186833        4.53171027461899
H           -8.38708584696455       -4.45513759173360        3.19880747336977
H           -7.81798596219451       -5.95635827060945        3.95874763279905
H           -6.11543356849326       -4.02429836099718        2.31349561887009
H           -7.37067583449934       -4.29166703111161        0.39064728226025
H           -7.55280778997762       -5.94879847115355       -0.24811037234614
H           -8.62114838842017       -5.38165524462434        1.05596541593317
H           -4.63953601285617       -8.23961698803243        5.21392842370764
H           -2.25435191079055       -7.50070974991692        4.97780650051565
H           -1.79655109974698       -5.46204838858326        3.60890898809565
H           -4.51829008239387       -5.73270466644711        0.67992601447456
H           -4.73384684324140       -4.59162920645692       -0.65798543829370
H           -2.95234658103776       -6.23745177155848       -1.19300312983338
H           -2.25755977639614       -4.61618821146262       -1.06436056548233
H           -2.05565201189536       -5.77090666381244        0.25692335272092
H           -2.53165593591112       -3.45966224122125        4.80117879327302
H           -1.65248544250120       -2.01314814805340        4.29124875546343
H           -3.79135405021569       -1.07519739482765        7.21225332750671
H           -3.19742640916519       -2.71667673298693        6.96341909314164
H           -2.12621120724876       -1.34019805270274        6.68863039573649
H           -5.05739976242454       -3.21410062527392        5.29542123197076
H           -5.69731934779616       -1.60565546752377        5.65138477672555
H           -5.37820588897726       -2.08342280388441        3.98196505868420
H           -4.21199433568817        0.44468678151505        5.31024619637773
H           -3.94278306746728       -0.07956543748322        3.64159221035766
H            0.01290569837456        1.15404380560644        4.02586500741240
H           -0.94602566495417        3.91145030895167        4.19746707290700
H            0.50481033650952        4.71083653031804        1.48618120742980
H            3.04035803697134        3.53156992310504        0.54761315313600
H            4.38965279830689        4.66662465932971       -0.58020116353875
H            3.65909087719834        7.51207733196640       -1.39509984992505
H            5.41406658642819        6.37990978175521       -2.82440565752963
H            6.08179955588888        7.69952368622261       -1.85969310361002
H            6.33176996137770        6.02469570982347       -1.36153643902734
H            5.25971138875198        6.43281020034902        0.96372287868660
H            5.24262541320799        8.12539948502310        0.45164926707811
H            3.76273928169905        7.36084620698033        1.03090068525652
H            1.68596212742227        1.74989318669953       -3.28137616323981
H            1.00016375650762        3.29626820879012       -3.80011508472593
H            1.53879613052859        2.77111216026738       -6.16619897551640
H            0.50726602080773        1.49276556425418       -5.46966886960043
H            7.56052766583314       -4.24298053374020       -5.17337463100170
H            6.18130433363379       -5.27114928056164       -5.53839410951919
H            7.22873684661335       -4.68433092809058       -6.85495481874905
H            7.38015199134271       -1.88855125076651       -5.31045074022454
H            7.42422253558300       -2.17389762923429       -7.06067797702382
H            6.12250391253670       -1.19584214778714       -6.34088720234415
H            2.95284591606643       -4.48353679774755       -6.95958097286556
H            4.42002794402415       -5.46208811507604       -6.92512467808192
H            3.82069203792356       -4.69337102101515       -5.43827737228914
H            5.55471475083770       -2.33596404073301       -8.60383639152750
H            5.73562304909317       -4.09791123454831       -8.59243167361041
H            4.15541480363936       -3.36875789958015       -8.89807659098835
H            4.52016461718715        0.63898260777563       -5.96744106022823
H            3.93861386087590        2.23874033933358       -6.49570923517440
H            5.17887642432422        2.48747566715361       -4.39352635084546
H            4.16977827608421        1.27626016380473       -3.59375168407299
H            1.74618029544807        5.34200501434784       -3.69073371280211
H            1.83054243863116        6.45223375978487       -2.32924584185035
H            3.05458641680765        6.52403645796015       -3.61733850389960
H            1.33556995156723        1.82360677896150        0.93373090073547
H           -0.16713912291690        2.25275471387205        1.77834890512201
H            0.61974287540342        3.08472190638761       -1.05392794175902
H           -0.17730922603209        0.68289178434821       -0.72706030821882
H           -1.27496873394250        1.67270489680560       -1.72951638752641
H           -3.37740953095731        2.43601665108554       -0.73125921827445
H           -3.61710801389479        2.18549318488152        1.02188095333194
H           -1.85447638589998        3.70332168642959        1.60555438403846
H           -2.81567528539168        4.53830519282989        0.35646313182712
H            2.56020223588179        4.03120135866460        5.29702771431225
H            0.94011924999303        4.52136566764725        5.85640864809702
H            1.65945139467128        2.52096389021723        7.12731772323940
H            1.97264129225855        1.65181534388396        5.61819713309495
H           -0.74532504467065        2.70125261804252        6.55586025094227
H           -0.26212661251537        0.99947306599307        6.46626436088271
H           -3.79776449184018       -2.51394825761407       -1.49300469447074
H           -2.97147758019922       -0.20717350111453       -1.72152358017910
H           -1.95323152836843       -0.05708244366461        2.41279712903995
