151
 energy: -221.322429188917 gnorm: 0.009405346237 xtb: 6.7.1 (edcfbbe)
C           -8.54046447462376       -3.68097168074429        5.49469150791332
N           -7.04542470810283       -5.99581256429817        6.06806297986276
O           -8.14720117899571       -4.98462571736354        3.45249172940808
C           -7.52568361091321       -4.23035524813516        4.49160669561518
N           -4.73698709908089       -4.52469557887744        2.53837207507198
O           -2.79996456210641        0.41141067687785        4.63814395488442
C           -8.75283590537247       -4.19298571055748        2.45160102784964
N           -0.98499368090575        3.01742444447477        3.07194302549725
O            3.20923185780989       -0.99289783704007       -7.59072725301956
C           -6.53764214384114       -5.14972152994092        5.18529547983085
N            0.25883891788085        3.63476204718785        3.23141764567703
O            3.50842138895445        2.05339725873486       -2.94264843296851
C           -6.23914082283994       -6.82384789877114        6.71065222144876
N            1.95721035534271        3.07329003557217        0.05243473631754
O            1.32456810012673        5.13666909244628       -0.59790827158419
C           -4.86513587745968       -6.83474061631976        6.53445637593165
N            3.02297483164999        4.25284603090067       -2.88250525251684
O           -0.53415549670089        1.61961467673219       -1.15577682239327
C           -4.32496655893779       -5.95461702611700        5.61307639238105
N            3.43952764015829        1.24254271687426       -7.28434318639068
O            2.31272448707352        4.08361144376771        2.45060145476408
C           -5.16520898230623       -5.09900757205853        4.90215513738145
N            8.29570783895649       -1.79562631898196       -8.26132493167426
O           -3.60211263051970        2.23937804926310        3.61489298988298
C           -4.57657594712954       -4.22675286979562        3.87585077802308
N           -1.80407159665082       -0.36157538045222        0.37936374632293
C           -5.39896445152230       -5.69265877034246        2.01321888199328
C           -4.46284081229086       -6.89891439470623        1.95747778290313
C           -3.76525751414165       -3.12721309163754        4.02679886244391
C           -3.28611709978803       -2.49331597808101        5.29653980478074
C           -4.10165812405308       -1.28022724920052        5.79937723724194
C           -3.47258205099205       -0.77206172391711        7.09885293801476
C           -5.55446716364893       -1.67337579366068        6.05435937719653
C           -4.11191267366390       -0.15193877096479        4.75891180052035
C           -2.68404259656776        1.59600923715808        4.07363602464795
C           -1.25533011258456        2.09662904052882        4.17150868421607
C            1.21000202146032        3.56561379121574        2.29091528073844
C            0.84883257823886        2.88424309287701        0.96321015171998
C            2.13245435018485        4.21517088467757       -0.61756565237779
C            3.40526883815604        4.26419180516684       -1.46939966136158
C            4.27578655948072        5.46365119087276       -1.06301736109653
C            5.47172937198911        5.62109030867214       -1.99953559113165
C            4.75433775771318        5.24837191800348        0.37245217251600
C            3.13169402420490        3.08032354859841       -3.51676747858724
C            2.93865293326122        2.95262648772573       -5.03733904873079
C            2.05543815079089        1.73973206260324       -5.34754731616007
C            2.07471084016596        1.42223046331060       -6.84408533259156
C            3.92473982517950        0.00678699471224       -7.51251659763414
C            5.35423689426900       -0.08696909480319       -7.65661506712538
C            6.53457017806293       -0.32800586717501       -7.67577021793135
C            7.98510622770603       -0.50011995841025       -7.64194140381473
C            9.66542779903485       -2.24121449109049       -8.11904384689625
C            7.85858678782675       -1.90118315273910       -9.63868383719139
C            8.63418830950913        0.71359789975900       -8.33722518940329
C            8.37076536534808       -0.50945393040467       -6.15357665515078
C            4.25865377091115        2.41872291090974       -7.11986991335149
C            4.34322546218824        2.79622662918629       -5.64096120727672
C            2.37705486722187        5.43588306313463       -3.41660291706323
C            0.50598047916211        1.40059163219190        1.07393105737036
C            0.22901762066024        0.77276810109445       -0.30830218961047
C           -0.46493006485332       -0.58720918914173       -0.12748508459748
C           -2.57051683700666        0.43060704452517       -0.56548468632478
C           -1.87466524050142        1.77848550417404       -0.72369562628615
C            0.47471983044774        4.35238754410185        4.48047699338210
C            0.28156673330180        3.39836699183964        5.65531700918395
C           -1.10027505543296        2.75635257920772        5.55951071180300
C           -3.39651246521945       -2.72118579077724        2.70862588176120
C           -4.01437091877349       -3.62479373195397        1.80777481938905
C           -3.84550370446781       -3.49986340440762        0.43308544591218
C           -3.09431858510174       -2.44369155958094       -0.03379623006903
C           -2.49707718508361       -1.52531179817156        0.84321330138621
C           -2.61807296464794       -1.67853528607863        2.20900290985776
F            2.34491353298020        4.06139240448264       -5.63824496072663
H           -9.12752342085636       -4.50481392335694        5.88723251302732
H           -8.01826449570043       -3.19557787633743        6.31324650513392
H           -9.19742053160280       -2.95709577375924        5.01988221989769
H           -6.96750208523604       -3.40381693082927        4.02256234645940
H           -8.02556300096860       -3.49657814727562        2.01576436570850
H           -9.09871317693314       -4.88770044779900        1.69071441247606
H           -9.60329555858418       -3.62571142212962        2.84055188892529
H           -6.72684274831894       -7.49660051007414        7.40251237551113
H           -4.24169168762608       -7.51831090868891        7.08897552745326
H           -3.26119075357885       -5.93269409200168        5.42526142298073
H           -6.26367555094776       -5.92305445028185        2.63955926411002
H           -5.75946060513294       -5.45480860769880        1.00964547139427
H           -4.97871799107024       -7.74020895865365        1.50525467982980
H           -3.57878154168146       -6.66650923980893        1.36858355219296
H           -4.14992112391517       -7.18355353616296        2.95999808855034
H           -3.28711033501778       -3.24403347966734        6.09162762988359
H           -2.25709802201803       -2.16191703281340        5.13592152052764
H           -2.41972973557435       -0.54840758401768        6.95011510612811
H           -3.97611211538906        0.13142757374267        7.43593178161771
H           -3.56220046963880       -1.52589716105150        7.87634954657508
H           -6.05861980867672       -1.88008000927516        5.11605737917950
H           -5.59988063556149       -2.56246918332002        6.67690351401070
H           -6.08472519254985       -0.86718334022753        6.55680978019787
H           -4.80338038363270        0.64362095385568        5.05241894989387
H           -4.41897102045094       -0.53100224228635        3.78091352140133
H           -0.56687784468126        1.25066320269067        4.09755675666744
H           -1.73097641409493        3.71820123945176        3.03942196287037
H            0.00424201052414        3.44373117733203        0.54428932115251
H            2.68777038900954        2.37737729677030        0.05997180118123
H            3.98193657678164        3.34741874605743       -1.31608958161445
H            3.66714552391244        6.37202666995292       -1.08555625829588
H            6.12451352026601        6.40439499680661       -1.62242245491169
H            6.03529050850269        4.69268995161123       -2.04735924981589
H            5.15701893013008        5.88812954604611       -3.00320487357084
H            5.28025545141543        6.12866589469993        0.72385820415786
H            3.91802345183729        5.06528406876964        1.04042919215247
H            5.42465117991403        4.39783105294425        0.42816152691379
H            2.43372624664751        0.89367398121897       -4.77370725447943
H            1.03581879839941        1.95157951009025       -5.02133076675551
H            1.62663329501010        2.24520334128455       -7.40790316195676
H            1.52731515939818        0.49961113945024       -7.04450150396450
H           10.39419341314229       -1.59626199054871       -8.63513360057140
H            9.92955471734343       -2.31078328140057       -7.06800211869391
H            9.73585097864657       -3.23872403944881       -8.55155524845716
H            7.85123156290574       -2.95462941242663       -9.91758997553896
H            6.84454855011371       -1.51481781223069       -9.73080160731392
H            8.51351254672681       -1.36406638777291      -10.34327968830844
H            8.38074895935984        1.62241784428976       -7.79889701793646
H            9.71546200326041        0.60287993853233       -8.34299081226970
H            8.28076369579038        0.80703562828277       -9.36080116584832
H            7.88490032871843        0.32040142543248       -5.64717723572489
H            8.04007072471105       -1.43688610651429       -5.69479073152101
H            9.44499493489542       -0.40532498755971       -6.03301229161160
H            5.25478613649296        2.22576477209482       -7.51798636483841
H            3.79571596764729        3.23692756929190       -7.68071651623253
H            4.88525006879412        3.73490659264006       -5.52489280474543
H            4.85934007162120        2.01417063033589       -5.08292686005854
H            1.38534152462491        5.19933298205694       -3.79780591879202
H            2.25251434702812        6.14950082034829       -2.60896130939277
H            2.96909508414616        5.88604363440630       -4.21355399312735
H            1.33561279890569        0.86480950512263        1.53571463391365
H           -0.38560353656016        1.28304796945904        1.68575918392598
H            1.16535993073845        0.63755741993404       -0.85949481143828
H            0.08922972822002       -1.18967208638846        0.59441227960018
H           -0.47211348612854       -1.11826283683189       -1.09767349998305
H           -2.64923858870923       -0.05087852136171       -1.55729131410069
H           -3.57364742664646        0.58117504121597       -0.16356902733482
H           -1.91502332856384        2.31562421172068        0.23137268856047
H           -2.35796623684527        2.37777745735439       -1.49729941483831
H            1.48370324297974        4.76103821157536        4.45089523980825
H           -0.24710598577179        5.17522521842348        4.53343764436660
H            0.37810366163772        3.94820264051999        6.59052965070839
H            1.05076480901194        2.62592144648026        5.62426778094978
H           -1.87568112908679        3.51749240077504        5.68348835896387
H           -1.23075772378198        1.99906047040575        6.33294664249830
H           -4.29019776593121       -4.19999047598785       -0.25766692429589
H           -2.96206690976373       -2.31819916071143       -1.09836174920034
H           -2.12322809257491       -0.97884524365450        2.86300101608883
