151
 energy: -221.323641003139 gnorm: 0.007177694793 xtb: 6.7.1 (edcfbbe)
C           -8.29654615119140       -4.38236173900536        3.38805878267605
N           -6.62284762929085       -5.83043054917048        5.08383578533552
O           -6.77237078466287       -5.73881868776024        2.02668421663521
C           -6.85564302398488       -4.67134431980384        2.97415764651123
N           -3.70499408628288       -4.31304289673125        2.00684247888268
O           -2.88436247192328        0.84797599084708        4.60977337129218
C           -7.12029904319309       -5.38178561030421        0.70740228856997
N           -0.24374734334222        3.04026072106553        3.92814889616621
O            1.32306036961058       -0.30543016354555       -6.47987334369905
C           -6.01497022112385       -5.09726726381038        4.16294904385602
N            1.07138489535291        3.31334419167009        4.31164365825643
O            4.49021091060331        2.76815931296221       -2.41188698733011
C           -5.94246100011528       -6.23809258265641        6.14093343969813
N            2.60783826317610        3.24265251362386        1.03345604317237
O            1.22097605115271        4.72074334353863        0.05472351175527
C           -4.60610150727318       -5.93379080199035        6.34628513743706
N            3.12467235812426        4.54174089021096       -2.15354973576981
O            1.31286648884627        0.79489546753672       -0.34334071476606
C           -3.96329761597400       -5.16832656254575        5.39051290376733
N            2.61459198505145        1.56169932247557       -6.48631714505545
O            3.21383163147624        3.60816309431413        3.67262390099376
C           -4.66405083920914       -4.73593882777508        4.26547356530362
N            6.40006936578875       -1.32357024121474       -8.78450896899197
O           -2.98756228044266        3.00281582104188        3.99203414412271
C           -3.99609721483032       -3.87873362361095        3.27942804666772
N           -1.50161407416639        0.36046327807607       -0.01477834719338
C           -3.69045144490300       -5.69244279257967        1.59003839817182
C           -2.40816702049290       -6.39228099518128        2.04163727383295
C           -3.59699918069970       -2.57190610587312        3.45312927879521
C           -3.68281915979178       -1.82721434038848        4.74915743474366
C           -4.73903062597002       -0.70194534629317        4.87039215837156
C           -4.98218471081971       -0.43409231368373        6.36137522913238
C           -6.05082162378777       -1.11222480076309        4.19939482250397
C           -4.24382467658820        0.59606336640773        4.21265419736732
C           -2.37577850974965        2.04716822700814        4.41766915161471
C           -0.90754444383896        2.09460793721968        4.81617864953274
C            2.06419896158099        3.27823673993043        3.40689125420255
C            1.65678053156953        2.78250444288983        2.01449332952759
C            2.32688979178921        4.20136273375085        0.14638531191051
C            3.50882980444185        4.60070851159906       -0.74450811003025
C            4.06270953487122        5.97602918127526       -0.32089657901943
C            5.16979360394566        6.41439198974913       -1.27969625625467
C            4.60093182687116        5.88925839183791        1.10763343578944
C            3.67926104601141        3.56604723379041       -2.88566289444510
C            3.29523245059424        3.39319945547017       -4.37269872770167
C            1.90556417987416        2.75959049617202       -4.48072812339932
C            1.57484639721336        2.39512850205689       -5.93079197988125
C            2.41479588754612        0.24139728079625       -6.65643193985070
C            3.55978988629517       -0.50564182830035       -7.10704757451193
C            4.43711962213755       -1.24489610850142       -7.47093045917179
C            5.55484666327812       -2.09748681435137       -7.86732927141198
C            5.70501852618204       -0.83606652856775       -9.96147288876696
C            7.64583167266831       -1.95993633108114       -9.15971503596587
C            6.32255217534671       -2.41077889650519       -6.57115608964907
C            4.98171092958278       -3.40191210568912       -8.45818890317635
C            3.90883377106894        2.20041970505698       -6.50764107007917
C            4.34514566855288        2.53094579242586       -5.07904933480455
C            2.05392679752073        5.42009249340867       -2.58136268311218
C            1.58506571138396        1.25174364587058        2.03156905923995
C            0.71431348596207        0.63342366342331        0.93965199130751
C           -0.72106906507516        1.18263300817749        0.89367009950790
C           -0.90563393487056        0.48085227618255       -1.33470698279616
C            0.57825383810993        0.07753184618286       -1.32047273970837
C            1.28916337980871        3.73364607078747        5.68767276410082
C            0.69595605029552        2.68811248333802        6.63034132043082
C           -0.78248739524555        2.48678626582880        6.30064751884497
C           -3.01955172293980       -2.16573645448258        2.21003393858080
C           -3.09651618902503       -3.28169485657877        1.34203932952089
C           -2.60546429619473       -3.19884504869217        0.04698893480576
C           -2.06081952000212       -2.00774435101961       -0.38217834596553
C           -1.96967262248940       -0.87635240688434        0.45447366881704
C           -2.43981994386550       -0.98249143857159        1.75910975149532
F            3.29132522387683        4.63496589367151       -5.02508392020682
H           -8.87447696970388       -4.03565165398745        2.53572017073963
H           -8.74126592711067       -5.28975659222055        3.78481508124885
H           -8.30919640376478       -3.61512450198367        4.15558506098883
H           -6.40473947296979       -3.77207823808510        2.52532187200994
H           -8.17963924245672       -5.12768842850680        0.62050732220370
H           -6.51548789047035       -4.53563900044837        0.36121129138039
H           -6.90894821340981       -6.25794750164483        0.09805323734203
H           -6.50368335166576       -6.82909230797711        6.85151936686157
H           -4.08907971864654       -6.28297075748813        7.22538375480868
H           -2.92152324589206       -4.90389401695668        5.50176518834380
H           -4.56241599948629       -6.19809775473355        2.01158890791532
H           -3.76829222290458       -5.71948129643262        0.50069115816277
H           -2.35331395514719       -6.41193599206378        3.12809810264354
H           -2.39403181808551       -7.41364891216073        1.67418814299816
H           -1.53615374339210       -5.86653933009780        1.65863019342260
H           -3.91110437312610       -2.55956755727338        5.52620932656099
H           -2.70515239905030       -1.39615310382346        4.97236980911524
H           -5.69692184657537        0.37510669166018        6.49112117735147
H           -5.38279184218087       -1.32217252002151        6.84641767385019
H           -4.05049560491119       -0.15809102567498        6.85277040341644
H           -6.42280143384240       -2.03031845415296        4.64953643827625
H           -6.80263335419264       -0.33551818977228        4.31912725524200
H           -5.89936844754050       -1.28543608289085        3.13527161366105
H           -4.86096449376695        1.45205562637866        4.50332728230781
H           -4.27112043262841        0.50978754239317        3.12181153751740
H           -0.46777236740601        1.10325819058098        4.66470900402411
H           -0.79571382316817        3.89992208369665        3.89204847526742
H            0.69156446420919        3.22389136971088        1.76071949106409
H            3.54645157376388        2.88639412449196        1.11534077381726
H            4.30795582281309        3.86175731059036       -0.63188233988622
H            3.25040730903323        6.71113929483605       -0.33281039061108
H            5.57455272681049        7.37293142172774       -0.96552343683586
H            5.97386099205529        5.67805597078747       -1.28018412756836
H            4.79692842786800        6.51490051544825       -2.29751567155061
H            3.81435439928273        5.62371964789898        1.81406942576090
H            5.38961799764894        5.14089959051641        1.17882517260369
H            5.01384126444691        6.85026042982037        1.40286073901031
H            1.90960098240718        1.85961548891634       -3.86257890208651
H            1.14650190722065        3.44021488933371       -4.10081267519983
H            1.49707199743541        3.30521014060380       -6.53249420736261
H            0.63394169328392        1.84413937672448       -5.97467434885493
H            6.28150578776271       -0.01117317219368      -10.38097122907772
H            5.58584822303590       -1.60240704960813      -10.74171906591736
H            4.72124584725836       -0.46466231999036       -9.68101008244337
H            8.21074652699503       -1.25142697688004       -9.76408744715465
H            8.23152590209071       -2.19130447748288       -8.27480643152722
H            7.50512391875353       -2.87677970937166       -9.75210200044225
H            7.02730357933352       -3.22198854717694       -6.72668328593584
H            6.85429144001046       -1.52487633786859       -6.23570139265300
H            5.61929441659306       -2.71064228579576       -5.79799996135541
H            4.49519562776774       -3.21223216373996       -9.41162076225253
H            5.77590671028728       -4.12925993159209       -8.60159859198418
H            4.24492139842434       -3.81708243875864       -7.77588649939939
H            4.63721847712467        1.54097124336085       -6.97868135860587
H            3.82647654157762        3.12383746446451       -7.08904352177351
H            5.29276344996105        3.06839548469169       -5.09244053550434
H            4.47842071527807        1.61792824935838       -4.49980043724018
H            2.09237478548163        6.32790829559405       -1.98506186881060
H            2.15283053990714        5.69118605393705       -3.62653333142211
H            1.08223041114627        4.95367578485620       -2.40078637600772
H            2.59725592241429        0.85571497369480        1.93154320380600
H            1.17961132777894        0.92497735007676        2.98774700039049
H            0.64656607112616       -0.45155137476802        1.14868929179342
H           -0.71037222869557        2.19870194458810        0.48879592106805
H           -1.15250897851709        1.21796260333872        1.89003276656455
H           -1.45291408727338       -0.10864807714187       -2.06704316955598
H           -0.98293703579845        1.53489595652131       -1.62262709347564
H            1.05289715686716        0.29608537955643       -2.27891270444091
H            0.66463210981213       -1.00096846835251       -1.11445060370911
H            2.36430551466727        3.84208953138857        5.82660344020148
H            0.80527059744923        4.70321544077551        5.84550204925666
H            0.81165405526043        3.02016451442194        7.66022286669116
H            1.23123553388803        1.74551924928231        6.50606071292582
H           -1.33483758837990        3.41341162982483        6.47396084236222
H           -1.21461627598842        1.70335859893937        6.92198086006276
H           -2.64045276511695       -4.04339308142876       -0.62466051865696
H           -1.68509361474377       -1.96927759783445       -1.39168854660209
H           -2.36005134240187       -0.15492007417826        2.43944950044696
