151
 energy: -221.320048234446 gnorm: 0.008037557643 xtb: 6.7.1 (edcfbbe)
C           -8.14017240218468       -4.10354149721409        2.31759488319585
N           -7.23167825710450       -5.36822983988056        4.66200777623261
O           -6.66820670347980       -6.02147638855275        1.82653810585149
C           -6.74063442125153       -4.71418192422996        2.39561064838983
N           -3.38575672298946       -4.59401192585414        2.39061439087688
O           -3.09640755638653        1.00645340019083        5.03265002238282
C           -6.91481161863949       -6.08607951091344        0.43632392806347
N           -0.29788304110395        2.91720651654533        3.86494190547139
O            2.22323905184909       -1.03100690272744       -5.73549866091560
C           -6.31336123600685       -4.87643243439083        3.84252567319872
N            1.03214575047214        3.09277806330070        4.27054262984157
O            4.89779038666774        3.32143647677176       -1.73934053200615
C           -6.94224415809949       -5.52968119674553        5.94011300401056
N            2.63706290075486        3.46445305560981        1.07124004909484
O            1.63022793711955        5.47865350304132        1.12693728912202
C           -5.71126253741471       -5.20016573116196        6.48688790585895
N            3.08091685568584        4.64912836137798       -1.61202386993505
O            0.57469480239532        2.02404609235144       -0.58185664884819
C           -4.74637989374673       -4.68875398426451        5.63943602448064
N            3.09872940201151        1.04858838882467       -5.49407516405758
O            3.20793046100558        3.22963239032109        3.71713471937376
C           -5.02984941717044       -4.52573790461295        4.28285422037561
N            5.71144434291763       -2.98182258053209       -8.81990213015236
O           -3.04499027786367        2.82846500300232        3.71045763161436
C           -4.01416414716817       -3.91987024285257        3.41683982543175
N           -0.46681549984490       -0.36566640447165        0.39078954983549
C           -3.46099152767121       -6.01803210482368        2.17417274921788
C           -2.78862841088449       -6.80222585713024        3.30438299923597
C           -3.55119242968178       -2.62791619079567        3.49481299912977
C           -3.86454647890536       -1.58529262696659        4.51486579759598
C           -4.84528659748595       -0.45733205893409        4.09930603363531
C           -6.27811160995456       -0.89536132583495        4.41106516356222
C           -4.76131423831040       -0.08623757320445        2.61749646704286
C           -4.51302205699432        0.79477786255692        4.94366104230447
C           -2.49788005045415        1.99401860156058        4.39551944541256
C           -1.00758693659829        1.97123165275658        4.71657639399810
C            2.03957377377947        3.06051527617465        3.38514651386106
C            1.65235083798428        2.83726783122967        1.92182818654439
C            2.52712664994802        4.75008919529059        0.72239521576094
C            3.55029124689390        5.18204114242075       -0.33181679783400
C            3.75061526519681        6.70477574112809       -0.35219468768090
C            4.57069950709136        7.12578777311485       -1.56788668360138
C            4.44272608327083        7.12369024791372        0.94380809816448
C            3.84649716482828        3.74006714724234       -2.22831981850172
C            3.41162541842614        3.18201824880749       -3.59590548420565
C            2.34221128508306        2.10076106971271       -3.42654840340979
C            1.94188473662330        1.55417975296539       -4.79317711259740
C            3.12740771099398       -0.21725775619016       -5.94183054307735
C            4.25891728505286       -0.58288991413901       -6.75250170514733
C            5.02424802732376       -1.09518318616086       -7.52980880990063
C            6.01179548381212       -1.58037063584854       -8.48391388566947
C            6.47709015840843       -3.50272258533274       -9.93430330301065
C            4.30629446388120       -3.28094840620640       -8.99126770270822
C            5.97776135113593       -0.61938210102145       -9.69083004961779
C            7.38394987614065       -1.50590780331914       -7.79019251648276
C            4.15705185693432        2.01103655730446       -5.69068476804813
C            4.60938923636046        2.59930985293698       -4.35137729902482
C            1.71164381907196        4.98348687521204       -1.95842725409300
C            1.52822409942566        1.34774326107218        1.60017764150132
C            1.40089907368224        1.08054724480046        0.08650231045415
C            0.87107214291350       -0.34865210754004       -0.13962874738544
C           -1.32689714093281        0.51661061088758       -0.36917601664905
C           -0.79578880785549        1.93991046345640       -0.21769283009937
C            1.27669818983319        3.41474910837403        5.66913857995514
C            0.64092183462050        2.34957921073847        6.55479724938157
C           -0.84498418850108        2.26431636247359        6.22247872325326
C           -2.60082873514456       -2.48390658736504        2.44491255046094
C           -2.50492967140741       -3.73568268745781        1.78845197417176
C           -1.63892960692312       -3.90430377481103        0.71174939521740
C           -0.93553313408835       -2.80964788298939        0.25307400175700
C           -1.06461869344969       -1.55366968900111        0.86595897618018
C           -1.85274343089410       -1.40575418896276        1.98949164216826
F            2.90696332617396        4.22111989384865       -4.39228000805219
H           -8.15493599012304       -3.16749912879964        2.86699745032021
H           -8.41845904031305       -3.90663357071604        1.28632358210589
H           -8.85144067799917       -4.78918335660432        2.76810206621413
H           -6.02230368258644       -4.06193582551598        1.86968376702961
H           -6.29693477814508       -5.36182814870589       -0.10874085607643
H           -6.64614107858467       -7.09766778588633        0.13831570551730
H           -7.97278778276944       -5.91134777946904        0.20651245045930
H           -7.74066296396730       -5.93332387617103        6.54933296976579
H           -5.51877953661472       -5.33924727683614        7.53811181189974
H           -3.76798435588631       -4.42280766438752        6.01125015993562
H           -4.51034521401197       -6.32168218844214        2.10101646117094
H           -2.96816695510442       -6.23456599822275        1.22446731506170
H           -3.36647807322516       -6.70264565798018        4.22292288828470
H           -2.74331919701198       -7.85419063094909        3.04055688082363
H           -1.77820842864782       -6.43638912306310        3.48380122801533
H           -4.27102527911057       -2.06538865498364        5.40694411508634
H           -2.91296967599934       -1.12646673758419        4.78917247644459
H           -6.98528533487798       -0.10524881210401        4.17198521489231
H           -6.52041367696759       -1.77261861030166        3.81635364157128
H           -6.39102622481043       -1.15336571014889        5.46125079375977
H           -5.58520923535720        0.57544157767876        2.35850970579381
H           -3.83552110480919        0.43549619110992        2.39098439914440
H           -4.81960222316178       -0.97260320296102        1.99184049751404
H           -4.84405107851790        0.65118630771422        5.97503960020263
H           -4.98431175611136        1.68546693852563        4.52002600535510
H           -0.61545009385915        0.97060425146888        4.50189499306802
H           -0.79407809955029        3.80971452007518        3.85647351876973
H            0.70875844553612        3.35977659557160        1.73825645982055
H            3.46728906977849        2.94359972848373        0.83451220088501
H            4.51255931665797        4.70021365727035       -0.13126975165831
H            2.76988909346079        7.18929537209740       -0.38261496366209
H            5.53004490222752        6.61255108440538       -1.56725200044281
H            4.05189391349198        6.88307333085633       -2.49159161251064
H            4.74872605871791        8.19685542639309       -1.54257147259044
H            4.52916451896917        8.20382315150631        0.98708304412932
H            3.86662178553901        6.79036808929289        1.80359814959858
H            5.43738617382153        6.69062024144859        1.00168181507522
H            2.77436916001394        1.30520840820771       -2.81823840151444
H            1.46599127858501        2.48778334956592       -2.91013688921303
H            1.48648332151397        2.35341183384915       -5.38790288834921
H            1.22883843348039        0.73468562882495       -4.68705936284419
H            7.52717252998533       -3.25161767440339       -9.81662648826451
H            6.38457804152899       -4.58946982970192       -9.92588705616617
H            6.12161799216242       -3.13939543960964      -10.90862802626518
H            3.85612683730907       -2.78718323011999       -9.87193250899248
H            4.20119615269678       -4.36066018770493       -9.11618825913206
H            3.74758005198229       -2.97777410202371       -8.10571997295269
H            6.76695921057138       -0.87090707636767      -10.39342093493489
H            5.01590960129831       -0.67826903593493      -10.19622018281812
H            6.12465955644102        0.40226153788714       -9.35101358991159
H            7.43501301045795       -2.25556255471915       -7.00637156852670
H            8.18712059435341       -1.67779197002366       -8.50002030981216
H            7.51859491986875       -0.52130717324733       -7.34934858540700
H            4.99626780846814        1.52109821865209       -6.18490266614323
H            3.78714996317736        2.82021616691129       -6.33018919864899
H            5.33980926450854        3.38861946608649       -4.52774007780216
H            5.07247285364996        1.83903090645219       -3.72433567391968
H            1.03425910562915        4.21328478793281       -1.58172429395854
H            1.45468531388283        5.92146912944706       -1.47407927138811
H            1.58207640457457        5.10223727353258       -3.02769790166678
H            2.40898770878871        0.82014760986674        1.96730890168051
H            0.64640403474586        0.95349700355316        2.10402454552142
H            2.37518754832596        1.19912362798684       -0.39762342604746
H            1.49111025114881       -1.06660770440374        0.39688584813198
H            0.90721923643621       -0.57587289370757       -1.22071961431804
H           -1.33496072078003        0.23841413920865       -1.43852120644566
H           -2.34492299905335        0.45986333454284        0.01525069064491
H           -0.93945643376300        2.27056812314866        0.81759878074830
H           -1.31619260432804        2.62615767545242       -0.88712368061695
H            2.35769553884813        3.46418312927476        5.79985264069235
H            0.84383685922157        4.39732130604308        5.88700456869716
H            0.78418733999316        2.61110875461540        7.60230823509769
H            1.11900282906079        1.38721764959115        6.36684962450735
H           -1.33100213690298        3.21503970701019        6.45681096132218
H           -1.32958171639408        1.47504132138162        6.79484137861757
H           -1.52962805340279       -4.85882651300266        0.21910263521392
H           -0.28590385386256       -2.91274244139591       -0.60339798749720
H           -1.89703613339758       -0.44458570951354        2.47662160189113
