151
 energy: -221.323157515234 gnorm: 0.008699813839 xtb: 6.7.1 (edcfbbe)
C           -8.37011456191995       -3.66891671282992        6.49781137473443
N           -6.88680228491663       -6.03128037609797        6.06906964526465
O           -8.68867732451472       -4.50632534489307        4.21092580405161
C           -7.74412967778547       -3.97397339297944        5.13694667369393
N           -5.70508048821947       -3.64362438428323        2.43017893447598
O           -2.38983995740220        0.26644606307875        4.98520026373486
C           -9.64361808471990       -3.57277489070773        3.75694590135076
N           -0.32605100218580        2.71216269571997        3.43721759415500
O            6.69961222715285       -2.55131110975040       -5.82231155944903
C           -6.64060890827890       -5.00532267484868        5.26732482108228
N            1.05168971952752        2.93158215005921        3.35284896459578
O            4.66982054323411        1.43178741597514       -2.26820059120451
C           -5.96468802092839       -6.96482667169567        6.22741297398971
N            1.85784506912191        2.73942893442411       -0.19759525555749
O            1.34245127959448        4.82135980562377       -0.91143842335818
C           -4.72457161075453       -6.92059376533781        5.60813596911336
N            2.89580471157644        2.65003673924611       -2.92534454089191
O           -1.45916454269410        2.77938257794508       -0.68926400119927
C           -4.45858213362880       -5.85257203428611        4.77236922617100
N            4.95330910057879       -1.11729514591862       -6.02638763931529
O            2.94720593671495        2.88304005138169        2.15180662909971
C           -5.43014923619790       -4.87073883929133        4.57563659428775
N            9.00379153355951        1.66828899040275       -8.29527802943673
O           -2.93011173895389        2.36368867138009        4.40212394498823
C           -5.11334999954990       -3.76067878372776        3.66900240080876
N           -2.79837691138039        0.65033274979190        0.51826299806735
C           -6.60494379095845       -4.59302907531257        1.82515604023684
C           -5.84170062077859       -5.67325773563638        1.06015880593611
C           -4.15459089746903       -2.78658540950570        3.83498744618571
C           -3.30239196223160       -2.54751522593845        5.03950439805861
C           -3.79197803280967       -1.42776760089139        5.99090471999747
C           -2.87628992961048       -1.39845497821938        7.21810470333731
C           -5.22963043369170       -1.68680649114338        6.43397355548728
C           -3.74960391392858       -0.05937846216177        5.30152545992646
C           -2.11557097119726        1.48411346953459        4.56615452062318
C           -0.61556805879132        1.64905046443518        4.39352133523398
C            1.72050515944043        2.80903668597649        2.19551748759916
C            0.91210123571695        2.69215787872609        0.89806470705940
C            2.05137627255128        3.82715437398483       -0.95387714957846
C            3.22368093314840        3.67168353576721       -1.93492758987032
C            3.61176178716905        5.01728734038699       -2.57082445662733
C            4.56667309751418        4.81968931254326       -3.74507396012281
C            4.26175793733727        5.88985936778429       -1.49914875153886
C            3.70856177872781        1.58921973744321       -3.02012198885082
C            3.54551409421487        0.57821506102644       -4.17042166462058
C            4.09749619543475       -0.79025761053902       -3.75949183848443
C            4.19411763830265       -1.73184178840118       -4.96198589828950
C            6.18971266716762       -1.55131071187698       -6.33503036164951
C            6.89662743083375       -0.78781628005241       -7.32848586202355
C            7.64208840677468       -0.31184942280248       -8.14860614746501
C            8.49094696743347        0.49612789739884       -9.02432404169299
C            7.96640912663770        2.50947966655087       -7.72531481344497
C           10.00277575993639        1.36265443457013       -7.28664816611920
C            9.64863749369409       -0.37446147114319       -9.53512426454721
C            7.67314386623010        0.96951353925652      -10.23983856512564
C            4.37418244771305        0.11258783583726       -6.50986843484559
C            4.31080167492872        1.14007065999187       -5.37650782431422
C            1.66937508612519        2.84546468582375       -3.67542494680809
C            0.03000635095379        1.44894938108953        0.76313327889059
C           -0.81365687147774        1.52662971231305       -0.52367601162724
C           -1.85189456314146        0.39637833377396       -0.54762597958481
C           -3.51611422945877        1.88647004919762        0.27139769129435
C           -2.48760901946798        3.01638354314743        0.26081746631883
C            1.75155165606473        3.22445438205784        4.59723505273799
C            1.49555810333158        2.12365623859283        5.62555128743473
C           -0.00894684994155        1.92463028343306        5.78380524709842
C           -4.13151381696878       -2.04170120788244        2.61997807674877
C           -5.11449731465474       -2.60433940219687        1.76866562216494
C           -5.35810720899458       -2.08294870390015        0.50179211895378
C           -4.60887748456266       -1.00256860736187        0.09053970145906
C           -3.60527410799920       -0.46021337307269        0.90757231128135
C           -3.35412887727229       -0.98325222265178        2.15746454526984
F            2.20812013383524        0.39066459644871       -4.53178168087847
H           -7.58637396769891       -3.49148265348700        7.22846785888755
H           -8.99970318536491       -2.78301977988187        6.44060309421414
H           -8.96074998061119       -4.52372167550724        6.81639654133525
H           -7.31730051257212       -3.05376125443753        4.70494750474359
H          -10.28628261908580       -3.22265335094051        4.56979540313378
H           -9.15068982892328       -2.71134416306039        3.28861341664758
H          -10.24818494494108       -4.09849946438268        3.01970616350384
H           -6.23782387502387       -7.77454898578091        6.89057721068586
H           -3.99448973048440       -7.69742507114756        5.77193684918764
H           -3.51209337989817       -5.76676003221927        4.25738407695654
H           -7.21853523135163       -5.04818071065209        2.60425207964680
H           -7.26201764464998       -4.04816323150310        1.14449321616316
H           -6.54233892115789       -6.35682799983178        0.59018236520794
H           -5.21707885249420       -5.22398222518344        0.29128365420325
H           -5.20623516045001       -6.23748939145055        1.73889317053939
H           -3.24980352769110       -3.46948848494985        5.62042147928847
H           -2.29508547637150       -2.28827581092323        4.71019315940222
H           -1.84133548927113       -1.26288171359076        6.91658612578826
H           -3.15547638941619       -0.58125995741023        7.87942771567308
H           -2.95821613047168       -2.33080963327399        7.76995164524678
H           -5.53162942990749       -0.96940706842365        7.19390736351628
H           -5.90948974680759       -1.60020598996404        5.59113757310281
H           -5.31431208699614       -2.68794355920438        6.84781928422558
H           -4.14977014927685        0.72164812505268        5.95622449472744
H           -4.33326962768823       -0.06110764198693        4.37716398259559
H           -0.19850127468992        0.71621459251582        3.99917609382666
H           -0.81634901772469        3.56268830467868        3.71758579889050
H            0.28990697365719        3.59140477407548        0.81104797365764
H            2.57471391888022        2.02736902496997       -0.18294857719260
H            4.08543529107891        3.28770423932013       -1.37646602829267
H            2.70120042199167        5.51816465675344       -2.91303414132420
H            4.94804401898220        5.78244414538423       -4.07029244486224
H            5.40751714406756        4.19715163724443       -3.44420399769429
H            4.06722402767305        4.34601818546522       -4.58505575498868
H            5.15675158181718        5.40967279797973       -1.11035622275160
H            4.53688660194693        6.85393334269465       -1.91594332899781
H            3.57158876829579        6.05535496715699       -0.67497903751257
H            5.07962953647085       -0.63801749118163       -3.31202208213597
H            3.43999965351176       -1.22547893192146       -3.00685864392149
H            3.19152569996816       -1.96148041030780       -5.33455015346648
H            4.69783074440820       -2.65635911207583       -4.67584834005253
H            7.24292029056670        2.78220710078582       -8.48716755977672
H            7.44093020614999        2.02880769146535       -6.88585846900452
H            8.43486292991418        3.42240509219920       -7.36012818476417
H           10.28811016587009        2.29386932246185       -6.80100000684001
H            9.63642498504313        0.66866770802149       -6.51446393478305
H           10.89104951825414        0.94311670533340       -7.75043634237250
H            9.25950693627447       -1.13223253252526      -10.20988649671301
H           10.35789341517933        0.24922886788807      -10.07129466064771
H           10.15440184377674       -0.88457690152953       -8.72014594910602
H            6.70016001661090        1.35435542699040       -9.94762360939801
H            8.23041569440614        1.74967949914075      -10.75206193059118
H            7.51344352532534        0.13753162953505      -10.92083713974370
H            4.97386411481858        0.49895824250812       -7.33492526543898
H            3.36105954373234       -0.09936278151526       -6.86500411448909
H            3.82800108352659        2.04896336993629       -5.73351938031360
H            5.31850878749460        1.38709479627234       -5.03831948961080
H            1.85017454101056        2.83796909396471       -4.75140154827151
H            0.94002148320886        2.06656655404764       -3.43742957844559
H            1.24480997186161        3.80457591405043       -3.38963513957826
H            0.65467399514896        0.55756019463743        0.71643141283525
H           -0.64118763220502        1.37720197742368        1.61419714151043
H           -0.15865115619953        1.45206562834978       -1.39839053234067
H           -1.37071254337418       -0.56589469571274       -0.37667059838132
H           -2.33542339220404        0.38273904487588       -1.54149339102440
H           -4.06048693595532        1.87297300208356       -0.69200105686335
H           -4.23090913507779        2.04929155652712        1.08137357286031
H           -2.06521837117968        3.11831283844523        1.26802764339234
H           -2.93991510626475        3.96068090370970       -0.04206081502235
H            2.81220059653538        3.31196423340048        4.35862262291333
H            1.38540118183161        4.18598253055615        4.97626659545527
H            1.94665585165815        2.40971911555258        6.57278025756008
H            1.95609072926547        1.19420118475493        5.28723874356840
H           -0.46756479269013        2.82504488328406        6.20208956235714
H           -0.22189997731730        1.08686812177623        6.44758808596237
H           -6.10815969322601       -2.50773981879056       -0.14758509130027
H           -4.78688297646228       -0.56839754951203       -0.88338663472029
H           -2.55589587988476       -0.56612035379483        2.74769888487426
