151
 energy: -221.321442836732 gnorm: 0.007475069135 xtb: 6.7.1 (edcfbbe)
C           -9.31320273165332       -3.73801097569731        5.11875095841101
N           -7.82204485004253       -5.00003821599384        7.15264349184602
O           -8.20841481970520       -5.81470610027708        4.38603529845255
C           -8.00509004714430       -4.46954162462724        4.82133847847413
N           -4.79307942528739       -4.62988018115705        3.83365731583885
O           -3.36039505568451        0.89680590153483        4.59923464440279
C           -8.83066690859989       -5.95565291628012        3.13027633572363
N           -0.74679596150934        2.62831495566651        2.89484973611153
O            3.94908351562986       -0.33463189262482       -8.91735272875973
C           -7.16496614068193       -4.59025094589426        6.07665168336630
N            0.58295114582499        2.99065721140450        3.12719573995206
O            3.47665453466679        1.37002996701619       -3.75289187997102
C           -7.17344811841267       -5.16932714024719        8.29022929424884
N            2.13050297828601        2.11852756283449       -0.05054513040854
O            1.47379008445735        4.14805462095290       -0.76239580682018
C           -5.81652105166207       -4.92356239311857        8.42796974440694
N            3.05671161396039        3.49724325489318       -3.14248105856648
O           -0.64960529020283        0.74707382470892       -0.91135546733053
C           -5.12266358969740       -4.49000671720929        7.31345952507640
N            3.95108540667647        1.78504735605566       -8.10845903539824
O            2.70983473073509        3.04367165748593        2.39960049422747
C           -5.78925231166136       -4.32201919423250        6.09906331989544
N            9.07791636433429        0.21383703528647      -10.05848358308927
O           -3.43728226925606        2.35816945247310        2.90362939881001
C           -5.01501775770912       -3.84873703789594        4.94648706311295
N           -1.71532047877703       -1.07398053342205        0.94052057482826
C           -5.10403564491594       -6.03344814636547        3.71124143520854
C           -3.98413776685160       -6.89983301322675        4.28587143274720
C           -4.36335411617410       -2.64073819566805        4.82306982505862
C           -4.32953148752784       -1.53560574995617        5.83056228499547
C           -5.24471762241704       -0.31994240141068        5.55269181543268
C           -5.27312527948472        0.55976471690390        6.80678682849217
C           -6.66059534663795       -0.78651335844448        5.21237878498554
C           -4.72924969876509        0.51479392873477        4.37552208811927
C           -2.82718135101038        1.77469154286311        3.77162524482840
C           -1.34557954708885        1.97529361677110        4.05196513377500
C            1.53944666746474        2.71499948729537        2.22813622588958
C            1.08355909389612        2.01845644621733        0.94198995968056
C            2.25447837200674        3.20564251502141       -0.81987431453315
C            3.44884543707733        3.15889753016986       -1.77744647409598
C            4.59705530278208        4.04870544975673       -1.25814612785800
C            5.72565927269035        4.11513386289989       -2.28656599243305
C            5.12161797150438        3.47307480367056        0.05608588085552
C            3.16794775950632        2.52731120015446       -4.05509756811402
C            3.09206569179710        2.81544410899292       -5.56580865183918
C            2.34781379105105        1.68507987654770       -6.28022746925835
C            2.54005464744823        1.77130801153712       -7.79586751231555
C            4.56201546921751        0.67142949934402       -8.55570369608287
C            6.00019074769009        0.71805652003975       -8.61488727219231
C            7.19210884621358        0.55296511543457       -8.67102792174976
C            8.64440299307462        0.38694814097739       -8.66606723782378
C           10.47947233112712       -0.10491646855098      -10.23912181770389
C            8.69180142631570        1.30535114486708      -10.93142379628418
C            9.27920208016921        1.59225163421967       -7.94027323263455
C            8.90504030432309       -0.89329202923318       -7.85474657531839
C            4.64365328187740        2.92798320137235       -7.56498087941418
C            4.55175515224888        2.91624330819116       -6.03829519998552
C            2.55141369031290        4.83331405963687       -3.39249586993210
C            0.68610203426317        0.55921474962558        1.15648868924714
C            0.19464919719283       -0.09985745152720       -0.14730320565535
C           -0.53423062171492       -1.41623779033232        0.17934090045503
C           -2.61399534951568       -0.26169628940950        0.13426245123713
C           -1.89314038880579        1.01575086921961       -0.28421484298821
C            0.85153568890251        3.79026574135395        4.31324839435885
C            0.32617392429025        3.06480211799750        5.54828754510485
C           -1.15991721744560        2.76843449873869        5.36069388983743
C           -3.69402888476311       -2.67900492930893        3.56545331863066
C           -3.97395747576843       -3.94112108280134        2.98310488761257
C           -3.45036918223552       -4.29575019445872        1.74424353972780
C           -2.68287475289266       -3.37062825374135        1.06834304366771
C           -2.40934320319715       -2.11258705336531        1.62547170304615
C           -2.88088087526232       -1.78214972789353        2.87931219472916
F            2.44816603169312        4.01125051484748       -5.89357196443077
H           -9.86763496563457       -4.29606955782483        5.86709454552342
H           -9.09243972516924       -2.74699239292227        5.50165002920320
H           -9.91076844150840       -3.63866870863771        4.21836993650576
H           -7.44461726054361       -3.92695884047845        4.04268582694456
H           -8.79727527116428       -7.02105068299691        2.90611430637761
H           -9.87301426211180       -5.62333952408020        3.14716337633119
H           -8.28513168877377       -5.39835528156486        2.35805492932806
H           -7.77824275565626       -5.51343715411493        9.11795490443266
H           -5.31797081904266       -5.06965892754861        9.37186168052428
H           -4.06122039690614       -4.29384173361319        7.36514960367224
H           -6.03978005546195       -6.24037572687863        4.23298222392809
H           -5.24085164721380       -6.25670963581436        2.65146049710585
H           -4.22870273606279       -7.94949479641994        4.15512815322200
H           -3.04521463009672       -6.68814121803451        3.77941144641437
H           -3.86058640987755       -6.70046497776697        5.34802810766196
H           -4.63063889535368       -1.94672760569766        6.79607793827189
H           -3.30449856024392       -1.17118450749281        5.91676224027951
H           -5.67633264875066        0.00497456677739        7.65033621936091
H           -4.26849013559630        0.89254950070428        7.05601538073128
H           -5.89774709515186        1.43506716861031        6.64246105298545
H           -7.05642793935701       -1.38962104009339        6.02548774450338
H           -7.31705760940206        0.06515757166695        5.05584151992417
H           -6.65560991037509       -1.38990452486971        4.30764068272414
H           -5.32868285316227        1.42230449410635        4.24842462823953
H           -4.77287440293125       -0.05718938233511        3.44312886945327
H           -0.87593952492862        0.99119432967543        4.16628153612361
H           -1.30719533728828        3.44086046595872        2.63319113731394
H            0.23764983992196        2.59089632289617        0.54757744513470
H            2.86995510917460        1.43563872023453       -0.01372984478280
H            3.80759006454547        2.12707142256420       -1.83281251603061
H            4.21327190035865        5.05540071066188       -1.07152144463393
H            6.02798422960938        3.10958067780796       -2.57533134257567
H            5.41821500200810        4.65425479792238       -3.17828149021441
H            6.58470633184576        4.62480127488189       -1.85524503960476
H            5.47810632672458        2.45728260221808       -0.09568720136640
H            5.94930444492445        4.07393939183837        0.41939399511198
H            4.35071299612793        3.46222789538553        0.82371941988460
H            2.73923517344360        0.73999642066298       -5.90322785336969
H            1.28748717847726        1.74445166627642       -6.03504348943209
H            2.08677206587024        2.68946033784215       -8.17943780075720
H            2.08812648461680        0.90599852204444       -8.28245384929854
H           10.64105562541160       -0.28955676465944      -11.30063132968465
H           11.15360278510940        0.70721035013954       -9.92744439339684
H           10.73365530817204       -1.01215450257533       -9.69819416444973
H            7.64945353510384        1.56246685645204      -10.75616167998072
H            9.31250347292319        2.20459230620182      -10.79927770631109
H            8.79657474607777        0.97007017253195      -11.96315028915149
H            8.84422820167252        1.69131704996552       -6.94924304267999
H           10.35079305066225        1.43995830714698       -7.83648140329846
H            9.10051021114958        2.51325538998236       -8.49030421438637
H            9.97055900509929       -1.06757444015528       -7.73141248536865
H            8.45919199497516       -0.78945319899535       -6.86711488341236
H            8.45167860184313       -1.74630215266613       -8.35315872949597
H            5.68817195334018        2.90334119291915       -7.87567538562713
H            4.16686564066393        3.83198622867343       -7.95489689505186
H            4.99848377826510        3.82487264481599       -5.63361147708968
H            5.08260065856689        2.05078520284107       -5.64091804031800
H            2.40001130205954        5.31888078946583       -2.43469742236197
H            3.24349266770652        5.41806950722145       -3.99710956370133
H            1.58701721555364        4.79095705343345       -3.89537511152114
H            1.53810044408851       -0.00491603201733        1.53417365090963
H           -0.12129784606408        0.51627432323613        1.88353483547007
H            1.03537211014508       -0.29577054914196       -0.82005139438492
H            0.10662732301511       -2.05981197208242        0.78396449899453
H           -0.76668952595107       -1.92982102835209       -0.77141433337410
H           -2.95203235496121       -0.81236473269547       -0.76110482816728
H           -3.48470802893443        0.00620542584327        0.73294092513535
H           -1.75535682283535        1.65143058643447        0.59726801197165
H           -2.47596233979672        1.55664290563930       -1.03010064920684
H            1.92886670955639        3.94758150145185        4.36030856615812
H            0.35092333833825        4.75896597980723        4.20023001221898
H            0.48233814295462        3.68784750836446        6.42690069348087
H            0.87774048751085        2.13392072975752        5.67785243165174
H           -1.72107758261829        3.70485579549434        5.30092828043852
H           -1.54825008182628        2.18249434225585        6.19170376599685
H           -3.64784889053810       -5.26264226398033        1.30602501622129
H           -2.29083712487548       -3.61591166963533        0.09171887712612
H           -2.60727384197266       -0.83024849400173        3.29864406956627
