151
 energy: -221.325127732129 gnorm: 0.004383458889 xtb: 6.7.1 (edcfbbe)
C           -8.96050445216338       -3.36835226598516        4.50032911993773
N           -7.62297262907151       -5.58551518255316        5.61169700656431
O           -8.26520831060278       -4.94298700095239        2.76362332295567
C           -7.79772244796136       -4.03986591288092        3.76800516652855
N           -4.74281490435925       -4.33486484251044        2.43721552667213
O           -3.05435018432688        0.65677622817806        4.70815572423223
C           -8.59963735377198       -4.31967494519205        1.54159625764373
N           -0.81970882352117        3.05716899806317        3.33804370282178
O            7.49080583869536       -1.83643862114177       -5.62622386080776
C           -6.95492672187839       -4.83769127009991        4.74566374514007
N            0.43421987534749        3.57917757761720        3.67517989125633
O            5.57946391753297        2.07869060305256       -1.23733500752533
C           -6.95875314550155       -6.28643989030863        6.51266019394257
N            2.39501165332937        3.01556527067161        0.65466598173900
O            1.70251183310916        4.99957248835980       -0.15102777172542
C           -5.57701986743406       -6.26363658469654        6.62303768096451
N            3.64274685082429        2.98460285999242       -1.93752567102038
O           -0.06765507061858        1.73787724761281       -0.76470530814603
C           -4.86948544513100       -5.49425393850310        5.71778618755136
N            5.55203713561462       -0.78631555818213       -5.08257218185291
O            2.59771188841522        3.88358696124244        3.15362977944346
C           -5.55387256548873       -4.77278779164916        4.74067269968206
N            7.15598685213531        0.11559802708562      -10.59107265101556
O           -3.53272499298443        2.42841553562809        3.42001520732866
C           -4.78422118120831       -3.98538195546626        3.77052773063164
N           -1.50483708771421       -0.24369250999824        0.60308108893631
C           -5.24021534202795       -5.57052708036422        1.88387045932212
C           -4.22128090699412       -6.69839201418407        2.03600506643359
C           -4.00467411260170       -2.87471505947111        3.99921336428678
C           -3.73286663961407       -2.19102491317501        5.30081573052616
C           -4.61514351306015       -0.96362823380439        5.62255822936109
C           -4.25218185930201       -0.45951049052720        7.02199128786937
C           -6.09384601718355       -1.34248947200348        5.58136607736930
C           -4.39461331517728        0.16093651859987        4.60220534698456
C           -2.75783186380694        1.78344500947573        4.09052033482015
C           -1.33330907393445        2.20378185842571        4.40360843344702
C            1.48770795691747        3.45392665830330        2.85553216889672
C            1.22645189907511        2.82499522729997        1.48348402012843
C            2.53949336366994        4.10769807260367       -0.10296183391562
C            3.79835030334652        4.07899705295947       -0.97864760515930
C            4.05977053236219        5.43549826929143       -1.65424115390079
C            5.19123168227456        5.32370364476662       -2.67392016079457
C            4.41394561877849        6.46199444517624       -0.57947996602767
C            4.59708532628440        2.04678483214461       -1.97952458535449
C            4.47674233787745        0.88168764225964       -2.98907137135123
C            5.57144813647475       -0.15546928452483       -2.71983427362758
C            5.51184251237896       -1.30067759182633       -3.73299185778804
C            6.57793364408019       -1.05677728379570       -5.91029318389684
C            6.54103128838428       -0.36630057278064       -7.17382372742110
C            6.62711371722700        0.23284895165888       -8.21565843239106
C            6.66237554449014        0.95496556393519       -9.48828599915417
C            8.47844513691284       -0.43479585805974      -10.35568204838568
C            6.24183223657411       -0.94100538697736      -10.98680319956095
C            5.24225449614880        1.46184715549987       -9.78984484099090
C            7.58179460477363        2.17777444710777       -9.31851373543116
C            4.48329594479129        0.13559080699762       -5.37929328754248
C            4.55365346002033        1.34662739562024       -4.44498485181442
C            2.45366238300308        3.05536836717557       -2.76439746498286
C            0.83235574978860        1.34961976886287        1.50364005079357
C            0.60471357254912        0.81287113521270        0.07451209104810
C           -0.16218062593580       -0.51708898840785        0.13137594074221
C           -2.19333783047101        0.62622252916006       -0.33506655509600
C           -1.42494957109693        1.94245463538375       -0.40808366962263
C            0.52864251758150        4.30973495223204        4.93076888158081
C            0.05280777621842        3.42646102340000        6.08057414201245
C           -1.35162327528464        2.91448886444512        5.77212126403923
C           -3.44693025671190       -2.51562398657489        2.73654869184651
C           -3.92066377039439       -3.45751883608512        1.78896754157223
C           -3.55047853682583       -3.37800121177291        0.45054328725634
C           -2.74059673301846       -2.33384707316350        0.06103012446575
C           -2.27657099884007       -1.38565704682590        0.98512740261941
C           -2.60165003871238       -1.48968652408637        2.32049439788585
F            3.23943514427508        0.24638514058141       -2.77326330736173
H           -9.57984105436178       -4.13853966557629        4.94922440058861
H           -8.57839479207883       -2.71623178973724        5.27840061010845
H           -9.55984097105251       -2.78016793742070        3.81061088348091
H           -7.16158318654259       -3.28306729002760        3.28441062151511
H           -7.69593779938511       -3.97179345841402        1.02343680251084
H           -9.10104714638216       -5.07687718053178        0.94268018300918
H           -9.27299162675674       -3.46921395959802        1.68726766017033
H           -7.56845700154200       -6.88240034638224        7.17775045561470
H           -5.07482922817877       -6.83439223852055        7.38695166325037
H           -3.79037256334950       -5.45452082618196        5.74756967530309
H           -6.17109089178328       -5.83911278022643        2.38852299810277
H           -5.45800026916316       -5.40666913460931        0.82583588996978
H           -4.04913402246818       -6.91251088018855        3.08806060468534
H           -4.59278972749540       -7.59778133840280        1.55434711326627
H           -3.27547910641493       -6.41760853579547        1.57807914508057
H           -3.86700762987315       -2.90895238098682        6.11215198751545
H           -2.69163438062366       -1.86357183792661        5.30047751836163
H           -4.52825618033385       -1.19895437907139        7.76947354182179
H           -3.18333706261475       -0.27337698955749        7.09477403638724
H           -4.78047119264932        0.46606616709173        7.24259982457603
H           -6.38529792882345       -1.61269958073822        4.57087922573955
H           -6.27968602833931       -2.19138048060796        6.23440500564793
H           -6.71113135603386       -0.50960836728790        5.90796906620204
H           -5.08559025709876        0.99023904749619        4.78454574565687
H           -4.55506290476796       -0.19916597783725        3.58195439514728
H           -0.69977525311826        1.31347261583078        4.46604208823065
H           -1.48878467493926        3.80968605453414        3.16189905020377
H            0.43267627463851        3.41965984334174        1.01687882672831
H            3.15919269234891        2.36571370156396        0.75715366303041
H            4.66149387795753        3.82654713259189       -0.35271082813915
H            3.13956211857240        5.75927171636221       -2.14855769702099
H            4.89412996610410        4.73536963676785       -3.53767942065844
H            5.47798624976859        6.31404540711851       -3.01528105227054
H            6.05881641969155        4.84983703887063       -2.21899578413852
H            4.56073471988257        7.43961351464318       -1.02997320330783
H            3.61191654302105        6.53845058518473        0.15086957960290
H            5.32687231916506        6.17382014194638       -0.06343166594868
H            6.53523996647137        0.35065117410536       -2.76818902954571
H            5.45122270961883       -0.55153184149176       -1.71152804333597
H            4.58248937485872       -1.86355026527473       -3.59613550888263
H            6.36247212911654       -1.97096872450596       -3.59833828676103
H            9.18798766288666        0.35995701903748      -10.14514653216056
H            8.50139229845675       -1.15765730379440       -9.52484464690760
H            8.80221630147187       -0.94179373058953      -11.26357915253553
H            5.99398809876642       -1.62665815031525      -10.16143787909285
H            5.32667400589666       -0.51418872332180      -11.38738822326879
H            6.71528112388197       -1.51895305338208      -11.77843745802516
H            5.22001810023289        1.89200135515521      -10.78669066527198
H            4.51068034900402        0.66176199264138       -9.72284355715080
H            4.97129090810902        2.22768094458543       -9.06814137567929
H            7.10401738172178        2.90999569156443       -8.67374378218614
H            8.53194055037407        1.90701686689336       -8.86725296217149
H            7.75979548334573        2.62086254752696      -10.29378310890593
H            4.55505237446513        0.45445165276598       -6.41866827225440
H            3.52990576777156       -0.38134334795221       -5.22491137851061
H            3.73715762183811        2.02147057461818       -4.68387942886625
H            5.50112127116452        1.86915532652570       -4.57940624411913
H            2.62714153828500        3.69500565291536       -3.63147191636242
H            2.12634571851738        2.07172762297380       -3.07989306872092
H            1.64653359846474        3.48886386843866       -2.17672154825489
H            1.62027811356999        0.76109474813155        1.97382323465987
H           -0.09080785513632        1.23258163985541        2.06721999779981
H            1.56518961479636        0.65792621021678       -0.42850372452129
H            0.32696596974039       -1.19948486437019        0.82737330872824
H           -0.15592194137611       -0.97163307519442       -0.87553439254363
H           -2.25749792827972        0.18197453649924       -1.34383859552747
H           -3.20190268074859        0.81531919000807        0.03637605389589
H           -1.50102080278214        2.45032743934785        0.56005730739723
H           -1.83126870659310        2.58663619283762       -1.18902840385570
H            1.56988566676162        4.60741944518469        5.05227086630812
H           -0.09558538656171        5.20740772651046        4.85697336442779
H            0.05212768857262        4.00263258891809        7.00455112786764
H            0.73641235204920        2.58443695906190        6.19566796355204
H           -2.05390028237679        3.75128412674800        5.72879249288670
H           -1.68846802165508        2.21843622265400        6.53910605212215
H           -3.89032685241462       -4.10284191822322       -0.27381535745949
H           -2.45628530978817       -2.24142256000888       -0.97722798679641
H           -2.20394818397581       -0.76735359257848        3.01324536438670
