151
 energy: -221.325062035182 gnorm: 0.006873821594 xtb: 6.7.1 (edcfbbe)
C           -8.57025746860448       -3.56602468412299        5.27741616070693
N           -6.81192025777850       -5.71950992345274        5.87793844209248
O           -8.31320221720234       -5.20081296965773        3.45555023542170
C           -7.65470179545970       -4.19355315130842        4.22461437818591
N           -5.07472778705413       -3.92476454293217        2.10636704491412
O           -2.07476061894262        0.31539714113282        4.66537600960842
C           -9.30898682219220       -4.72677179148535        2.57662057178884
N            0.61810822024858        2.21920659472460        3.32393165755265
O            3.47829366188950       -1.81383933041951       -5.00884499319422
C           -6.48805157030640       -4.89614939556647        4.89052383043033
N            2.01526335688347        2.18487420859893        3.30571047085895
O            4.33319367052914        3.35424323804490       -2.63405561730095
C           -5.86210931786319       -6.38664729989529        6.50761280733854
N            2.44088484553450        3.20226051546471       -0.06692038041604
O            1.08328793489120        4.96080957413271        0.33499279069326
C           -4.51746329085276       -6.26629250981807        6.19236761923302
N            2.38163514475246        4.47676153761014       -2.61778984198817
O            0.09616447595190        1.63234522340435       -1.36530518994237
C           -4.17066388179830       -5.40748295451779        5.16696542112979
N            3.22991407670461        0.30447352577470       -5.78681861013282
O            3.91098537909167        2.27036672758646        2.09413709374179
C           -5.16196301304655       -4.69920506206328        4.48331582432915
N            8.02354051454530       -0.19384323086188       -8.08026666186804
O           -1.99526827626923        2.45133757764705        3.98882262127770
C           -4.73439302538079       -3.77160193276065        3.43173904268944
N           -2.00955025843108        0.13635266252869       -0.04830016647522
C           -5.67450897370097       -5.10532986666920        1.53529589127342
C           -4.62063446761593       -6.17611428093847        1.25269306096931
C           -3.88735308632993       -2.69585267501631        3.59018527750437
C           -3.35732208223400       -2.19010139416015        4.89326959894334
C           -4.03298198523590       -0.90720090001397        5.43793761963592
C           -3.71996070971604       -0.79284278521329        6.93400096083737
C           -5.54772012558794       -0.96792192846705        5.23456988573125
C           -3.50956116877409        0.34614774494669        4.72413834644989
C           -1.45225942335782        1.39958566978941        4.24861817314288
C            0.04899573814326        1.17234461243224        4.15821970209294
C            2.68586374060023        2.24981609528429        2.14504817614923
C            1.82738720950353        2.29885696132124        0.87586881902303
C            2.02513535144983        4.45767622961319       -0.25915314245200
C            2.79583314497290        5.15351372770508       -1.38887297622044
C            2.60820735605195        6.67442927079716       -1.43406186115298
C            3.27131399655388        7.25197714412381       -2.68217720107732
C            3.22520995639138        7.28471066792742       -0.17654431093954
C            3.23391954394813        3.59420438744501       -3.14581489085190
C            2.84629775230352        2.78262820565564       -4.38857756020841
C            2.21607819663392        1.46917128365284       -3.90799886543995
C            1.98728456673320        0.51414428663354       -5.08032133594316
C            3.92155803937972       -0.83780070481398       -5.61913189075712
C            5.22535560961688       -0.87741665003251       -6.22705635667639
C            6.34535512076142       -1.05514199245457       -6.63249867061807
C            7.70829142561338       -1.25538323042285       -7.11435976941272
C            7.09622809108937       -0.11220769290438       -9.19211601906863
C            9.38886531733642       -0.19610972624760       -8.56722881994808
C            8.61342474324006       -1.13210879914166       -5.87553188047900
C            7.79321854640637       -2.68755376492923       -7.68140490383503
C            3.78036212527931        1.51203934274773       -6.35473052494700
C            4.08745312687221        2.51986084778237       -5.24630532186036
C            1.00188449112345        4.66828486328877       -3.01912708236694
C            1.71028228152840        0.88759979426694        0.28326937145716
C            0.36971209255986        0.61171903860193       -0.41063521978257
C           -0.76220163077986        0.45496638038469        0.61205281113610
C           -2.13798182310600        0.64573097515088       -1.39482381208659
C           -1.28829329197451        1.90803366517576       -1.51459217858225
C            2.70692769048272        2.16716858367894        4.58683121098179
C            2.17442390511423        1.02237738891160        5.44606406670361
C            0.65695450128537        1.14202165583041        5.57208783096588
C           -3.65415936964059       -2.17222492231725        2.28393883986127
C           -4.40855032116977       -2.96433336505741        1.38662823017794
C           -4.39898039682593       -2.69012996056176        0.02475761230833
C           -3.61753514795437       -1.65376319467371       -0.43660307795314
C           -2.81240402002478       -0.88639329151435        0.43014842842204
C           -2.84662293313124       -1.14855321225012        1.79367908701951
F            1.92926752169562        3.46848718236571       -5.19103054025229
H           -9.35109530897801       -2.97373385424591        4.80769581487598
H           -9.01622974405150       -4.35688881352069        5.87386899054007
H           -7.98685534820701       -2.91858167005074        5.92555503272095
H           -7.27798638681072       -3.41180192441780        3.54448447464685
H           -9.66482626288033       -5.60320200599540        2.03566281965545
H          -10.14533919356868       -4.27480521352576        3.11703858101946
H           -8.89501419938008       -3.99718276290896        1.86894700398294
H           -6.20089044979703       -7.03960774115768        7.30021484262242
H           -3.76955570019823       -6.82665273232717        6.72983357974471
H           -3.13769993943448       -5.28411298213448        4.87434863955566
H           -6.42269815660820       -5.49881865389876        2.22669637964658
H           -6.17475743472813       -4.81853755948459        0.60724468750709
H           -5.08483241769852       -7.04261984264287        0.79153803024047
H           -3.85567581384378       -5.78603920049740        0.58493813994540
H           -4.14625156894363       -6.48745229079166        2.18102076743434
H           -3.50212867117801       -2.97020593950750        5.64207349645204
H           -2.28687120179328       -2.00050783242104        4.80283515185881
H           -2.64366142518973       -0.76293824623487        7.09514376457059
H           -4.16027073578498        0.11349992786942        7.34643694288240
H           -4.12997329948237       -1.64627311197867        7.47112047773993
H           -5.79150194878622       -1.00266719310775        4.17522603525318
H           -5.94522035330116       -1.86203473013268        5.70782162949116
H           -6.02797695773672       -0.09614946694048        5.67185500299932
H           -3.81651955543560        1.25378736677273        5.25155926974935
H           -3.89100286585394        0.40111416620262        3.70018823666588
H            0.23138211321136        0.21001581454837        3.66730137127745
H            0.27785530524165        3.13001167712301        3.63701847163607
H            0.84857034437120        2.71476203733083        1.12193412956063
H            3.27384865774279        2.88119536432313       -0.53435758468298
H            3.86292965573403        4.93861540435354       -1.26331741290433
H            1.54037170735952        6.90826687178312       -1.43890843917174
H            2.81770481045032        6.86186485025195       -3.58858194985811
H            3.17431629660945        8.33353665551495       -2.68647212236416
H            4.32962168702568        6.99894480351718       -2.69309639520138
H            4.28973076664847        7.06447347241080       -0.12856904081077
H            3.09383518273266        8.36306587808640       -0.18255243711110
H            2.74655050008140        6.88384623886877        0.71345373530092
H            2.90826774227125        1.01543942614989       -3.19796607482143
H            1.27826470558300        1.66220919943144       -3.38866128387585
H            1.25354786475232        0.93765641010194       -5.77196036197337
H            1.63656800082353       -0.45298471665640       -4.71618632742266
H            6.07401015463043       -0.18143265014072       -8.82474351580394
H            7.22966865890057        0.85518975350123       -9.67674580528603
H            7.25494022933557       -0.89847282712239       -9.94648544874798
H            9.61248722249579       -1.05101556476118       -9.22472543954046
H            9.53796133068370        0.71818342606995       -9.14162559225736
H           10.08681239046253       -0.19143449949404       -7.73491487255478
H            8.17197477182793       -1.68403627916155       -5.04895939875552
H            9.59921957577716       -1.54275118492509       -6.07285774002844
H            8.70333196377199       -0.08800006413569       -5.58923696297666
H            7.11139871164072       -2.80925092046271       -8.52009490901199
H            8.80735523136711       -2.90097919744725       -8.00863948406579
H            7.51600424576609       -3.40028302956812       -6.90930587587224
H            4.69021890316258        1.27729129461005       -6.90678459953190
H            3.03826188893142        1.93585131680975       -7.03829125303352
H            4.42078791743306        3.46164943686474       -5.68289063380259
H            4.87482696265273        2.14399072460239       -4.59254518186990
H            0.45980278774029        5.09581416121031       -2.17928849686192
H            0.92865410560948        5.33877872479809       -3.87580437246305
H            0.53795884851035        3.71781307552079       -3.26816292850307
H            2.52230698533952        0.75165683145085       -0.43217019988457
H            1.83699282362676        0.14631785238999        1.07191443650271
H            0.46840567049846       -0.34388051597640       -0.95393667625322
H           -0.85434035980687        1.37216201515309        1.20983658016423
H           -0.49177291409852       -0.36534672563176        1.27961599742343
H           -1.80236060010608       -0.08170706783489       -2.15264987697308
H           -3.18568678458052        0.89705512508757       -1.58873865690413
H           -1.60719944605856        2.64407834442927       -0.76488735529877
H           -1.40198879874971        2.34739557306625       -2.50777891078084
H            3.76850573983265        2.04980053693399        4.37111316673194
H            2.54740400385709        3.12678808124915        5.08984354515417
H            2.64012921033412        1.06426057838352        6.42925711767240
H            2.43050680464431        0.06950039873372        4.98019177916190
H            0.39633776182006        2.06543300520223        6.09480667096749
H            0.24470395293322        0.29954871868081        6.12563391204761
H           -4.97809122582692       -3.27766840730420       -0.67165906795947
H           -3.60428549214253       -1.44729926223922       -1.49417141005110
H           -2.24408553855070       -0.57144927418231        2.47215004127404
