151
 energy: -221.326196661648 gnorm: 0.004405057725 xtb: 6.7.1 (edcfbbe)
C           -6.43443161081445       -5.32385288980630        3.87848248846972
N           -4.34638216558311       -7.00970590834181        3.12154000267402
O           -6.47787331428396       -5.79556257143804        1.45452402931260
C           -5.76048246795665       -5.16478525204387        2.51622593491794
N           -3.75658479400177       -3.66575166768964        0.04481028933698
O           -1.16348106909264        0.03739915475448        3.63809567990742
C           -7.82852060570209       -5.40303203136510        1.32025856402453
N            0.74067979393971        2.87355258681779        2.56984952249307
O            5.91734679968605       -1.33837963218453       -3.42971211603349
C           -4.39685255422781       -5.82759109922446        2.52162370971301
N            2.10127677680281        3.17331382624773        2.45207301699321
O            5.36255840533225        3.86051461858063       -2.60681535951919
C           -3.20540766153542       -7.67101221298056        3.16600891452302
N            2.59111962407116        4.33929123943139       -0.96089199390848
O            1.72638697752228        6.43402125734417       -1.01515326599291
C           -2.02935405284541       -7.18863706303620        2.61210293932239
N            3.63133090841725        5.02747169133986       -3.44088820772095
O           -0.89883750168402        4.07099675360313       -1.01943443245974
C           -2.07136628403670       -5.95628404829633        1.98909521300931
N            4.38982181558264       -0.06815805125097       -4.53047723776551
O            3.87421479579737        3.68438645205279        1.17751729634752
C           -3.27242812275745       -5.24549928038314        1.92702180128509
N            0.98787613710632       -3.13285548039502       -1.54298195188227
O           -1.78180522507651        2.18086842498764        3.41615951797900
C           -3.22781817880765       -3.92240622528434        1.28906941782738
N           -1.69452676192592        1.41766820503788       -0.65361278700215
C           -4.45902820120916       -4.61544504107777       -0.78221003291246
C           -3.49931189332268       -5.46467872169263       -1.61347809637360
C           -2.52574129871838       -2.82904002069874        1.74539187002975
C           -1.81505200439704       -2.69867778932727        3.05314274165594
C           -2.56636387642361       -1.88388148513095        4.13419007117839
C           -1.89633701805245       -2.14024368880183        5.48642540061283
C           -4.03305194231917       -2.30745331282277        4.19958915719173
C           -2.52293458246634       -0.38104707182595        3.82924440909926
C           -0.93425555920175        1.31674058384355        3.41075685269165
C            0.54830985091163        1.56271568640170        3.18390093968707
C            2.65965970399994        3.52122405888734        1.28330842362127
C            1.74432809543162        3.79994880738381        0.08461342817782
C            2.58220365544367        5.62912946883602       -1.34207043845863
C            3.73897926657799        5.94781779096382       -2.30705987042633
C            3.81371693957573        7.43192226163822       -2.69005932452488
C            4.79552938963166        7.64595141555985       -3.83902371687621
C            4.25404479979959        8.23133767061079       -1.46397026638425
C            4.46499823304588        3.97865599066544       -3.44534733802151
C            4.26632023971906        2.80296834159971       -4.42494460412499
C            3.16686123525987        1.90801948244056       -3.83350528882987
C            3.09504508991858        0.56505793579186       -4.56383510646930
C            4.76056518718652       -0.94105180049786       -3.57108070074197
C            3.70593833974660       -1.43650626865205       -2.72192885132408
C            2.97537996870602       -1.89117724480691       -1.87798047981049
C            2.10206712891050       -2.46819739790496       -0.85602921019436
C            0.17117916412679       -2.23538326310611       -2.33475360347335
C            0.15630813049568       -3.96820815943364       -0.70161466615422
C            2.96313568072997       -3.49549345999591       -0.10260860338253
C            1.67641707667936       -1.34487061945021        0.11499712120122
C            5.39194602713780        0.68042144006106       -5.25610080367070
C            5.58843196195819        2.04751277074395       -4.59759298894046
C            2.46484783505123        5.19348373749069       -4.28545218532577
C            0.97965678222765        2.58042015006041       -0.44015286050680
C           -0.08746097761726        2.99958959915151       -1.46958070190263
C           -0.97298997085476        1.79982690055026       -1.84659082642990
C           -2.58200638775103        2.48664972887669       -0.23388411859000
C           -1.73819578489814        3.72311229568607        0.07064795673085
C            2.90285468393584        3.10008017330931        3.66813872478651
C            2.76593082942948        1.72197269481525        4.30725964894163
C            1.28629481485089        1.42036198059801        4.52881967122246
C           -2.60322472601666       -1.84950591990054        0.71546847526082
C           -3.37096144079685       -2.41116177122020       -0.33674152157985
C           -3.59218064060813       -1.70324182838642       -1.51444460643388
C           -3.05094406184851       -0.43977928264386       -1.63446876637899
C           -2.27743038656506        0.11969307208746       -0.60572333843097
C           -2.04450478552518       -0.58582554877976        0.55611249933137
F            3.86350708640702        3.23310912853288       -5.69229198146421
H           -5.76900590237270       -4.95605408142954        4.65378113902648
H           -7.36228646292154       -4.76060585201307        3.92045718624315
H           -6.63107148905436       -6.37653787089386        4.05891635117702
H           -5.65179242447107       -4.09319319830633        2.27606933826551
H           -8.45469866690734       -5.84979561839358        2.09911589444901
H           -7.92559342070577       -4.31160484721913        1.34960351111952
H           -8.14704943327720       -5.77243108222143        0.34590242302647
H           -3.24116798551278       -8.62445724760949        3.67437821881722
H           -1.11545932475329       -7.75704052180146        2.66975959701065
H           -1.18621309756108       -5.53226815484478        1.53782465389865
H           -5.06311378020256       -5.26288728634228       -0.14262771858405
H           -5.12836405625036       -4.05763593638570       -1.44069613764272
H           -2.88688044943564       -4.83249846052111       -2.25258541633017
H           -2.84767918402448       -6.04386332328204       -0.96330708010782
H           -4.06434791308144       -6.15094682680994       -2.23715698174778
H           -1.64498482389003       -3.69945250877421        3.45454771246385
H           -0.84459191257723       -2.22541030091622        2.89125074165799
H           -0.84097207811006       -1.88585381072693        5.44166128011928
H           -2.36478976249150       -1.54068194661619        6.26318820359597
H           -1.99133207495611       -3.18793674440639        5.75906945847398
H           -4.52940551332130       -1.84293464586086        5.04706798383263
H           -4.55745629554239       -2.01787456149833        3.29227189023720
H           -4.09640514019029       -3.38663576495312        4.30483525015849
H           -2.95486503801248        0.19612087954573        4.65286993477135
H           -3.08575319540263       -0.14871184646546        2.92012628746276
H            0.92837345465782        0.80618017858685        2.48752630464540
H            0.25625797860806        3.58424312491394        3.12367585278811
H            1.03181151507231        4.58547424712969        0.35963624730460
H            3.45721268420522        3.82921177987982       -1.08732244886010
H            4.67150032108397        5.68200149785908       -1.79396629505903
H            2.81758317207799        7.78424604604694       -2.97466966933804
H            5.77895454751709        7.27273247278109       -3.56111018067019
H            4.47473353715188        7.12997490652798       -4.73917171511425
H            4.87854097933310        8.70627675914877       -4.05967889383829
H            3.55423071412464        8.08346186121885       -0.64541808104047
H            5.24366572747258        7.91689194390121       -1.13892434989293
H            4.28613851212364        9.29084998293732       -1.70199815369795
H            3.40927516098878        1.73610861306287       -2.78336937108096
H            2.20441261422966        2.41213605587956       -3.89993936429495
H            2.81915806646146        0.72525026151118       -5.60931509020077
H            2.35705392588223       -0.08219335151666       -4.08994680050440
H           -0.41675841611185       -2.83197979311422       -3.03210020373895
H           -0.52308497400710       -1.63441732335645       -1.73049837073805
H            0.81366576009777       -1.57136904091954       -2.90982059693748
H            0.75718483151218       -4.74821750842719       -0.24259006327974
H           -0.37971888084597       -3.40504856114717        0.07545929397393
H           -0.58401319145501       -4.44552994925160       -1.34163580290093
H            3.92362915648068       -3.04861971810662        0.14351472500558
H            2.47990923174353       -3.80442604178792        0.81943162143111
H            3.14005113934079       -4.36208367315716       -0.73358552362582
H            1.07108518222439       -1.76412950212253        0.91489895241225
H            2.56217768471227       -0.88322770564313        0.54460068709842
H            1.09821429932290       -0.58144457939017       -0.39902562638700
H            6.32788859233719        0.12073609688772       -5.23168339662083
H            5.05981390936831        0.79822059878583       -6.29030206558005
H            6.26358503299644        2.65842048518329       -5.19724565471156
H            6.03196762833802        1.92169364861842       -3.60911846925111
H            1.66037015471843        4.52099211805981       -3.98238911377750
H            2.10464675751917        6.21077068593552       -4.17316239744367
H            2.70631835566443        5.02358001401698       -5.32992814449150
H            1.67721122303253        1.89207982940681       -0.91777584134622
H            0.48345226657598        2.07509341562165        0.38433656781641
H            0.39999546493267        3.40382869784124       -2.36292610801677
H           -0.35797208197395        0.96312513944947       -2.18073894838482
H           -1.64155329234100        2.10619158988285       -2.67073633532995
H           -3.32539707893367        2.72500513645880       -1.01637196773549
H           -3.10817134402275        2.18226547087968        0.67232285977957
H           -1.14249258014048        3.53680443453883        0.97138820044292
H           -2.37299795568227        4.59516683572324        0.23228970086329
H            3.93398836157224        3.31313215856484        3.38742614341434
H            2.54970955154080        3.87490298860559        4.35752121922980
H            3.30516438734596        1.70674088152578        5.25306132276954
H            3.20299938156882        0.97193884051971        3.64664426160925
H            0.86459982117502        2.12820799376702        5.24648790448401
H            1.14869068747796        0.41128608919969        4.91383139318625
H           -4.16852289315841       -2.12510982718357       -2.32370670070987
H           -3.21422087735597        0.12618576873436       -2.53968957957374
H           -1.40898010375814       -0.14524478262105        1.30451086537345
