151
 energy: -221.319990662038 gnorm: 0.006129112032 xtb: 6.7.1 (edcfbbe)
C           -6.00351354508924       -5.50505043548679        3.23700163590630
N           -3.82668739676709       -7.13281522908127        2.47188886322176
O           -5.92684139276446       -5.88302805314697        0.80534513654514
C           -5.26497362664177       -5.28108741302716        1.91841510427443
N           -3.32892378142467       -3.52943165903202       -0.23897570484980
O           -0.98781556169785        0.03871149154154        3.56814430835221
C           -7.15640507843710       -5.28671746028290        0.45135231383053
N            0.68998825748120        3.12179733610000        3.24389154549440
O           -0.71353674360433       -0.12172553804902       -4.29067586656822
C           -3.88515985722791       -5.90958121891325        1.96245071258002
N            2.01622877271033        3.56392856898625        3.25961079914765
O            4.77166036517478        3.70093027322359       -3.01351159120087
C           -2.66357176379638       -7.75440223843298        2.53767673607646
N            2.72724554787192        4.51972315231373       -0.19792804625111
O            1.90168607005396        6.61448238954691       -0.42521554750458
C           -1.47515789583201       -7.18886044259307        2.10031651222771
N            3.00099433247339        5.07246988816334       -3.05302748307854
O           -0.21749054269668        4.08529903756333       -1.22683591666496
C           -1.52535897478098       -5.91348316956611        1.57102708117063
N            1.45463542669224        0.42376334094143       -4.67168415563591
O            3.85311563025857        4.20326664535722        2.13649718897930
C           -2.74800639253737       -5.24419381371656        1.48772755688626
N            1.46040107774670       -3.05646166877882       -0.19566830493241
O           -1.75735931910218        2.06501117970683        4.15377741251366
C           -2.73326064068039       -3.87859795767759        0.95333208450462
N           -1.42490695836266        1.63957767917709       -0.61918567812889
C           -3.92308502185033       -4.43414510736182       -1.19102306333396
C           -2.88182839408995       -4.96635996060493       -2.17377813988369
C           -2.05586429384907       -2.80306171746065        1.48311432724945
C           -1.32594431048517       -2.74668742402436        2.78516137620495
C           -2.10013929875660       -2.08192001786967        3.94867667532398
C           -1.30510710095012       -2.28477910646041        5.24223332995863
C           -3.48617021765230       -2.70668886909928        4.09399152862397
C           -2.27632190728244       -0.57726823339198        3.70435052323932
C           -0.85947054553907        1.32391491203225        3.81926994245676
C            0.59765189973744        1.74080480843054        3.71003170066227
C            2.65552077453779        3.93039185859436        2.13720719570043
C            1.83535479354125        4.06910033492486        0.84843262016846
C            2.67259813930721        5.73137019307696       -0.76698257679797
C            3.62124850337227        5.85107058787888       -1.97316864113097
C            3.93977635609639        7.30986790500361       -2.32496100164772
C            4.60873071610463        7.40481775632176       -3.69213764701602
C            4.85137261596404        7.87107037255449       -1.23395958442514
C            3.63413731526177        3.95044817544228       -3.42226593611186
C            3.01897457880510        2.84352146602425       -4.33400936571161
C            1.55845034812977        2.88176693641147       -4.77522596359450
C            1.14510523520304        1.57884283463121       -5.47842378928785
C            0.48688886173371       -0.31196250688103       -4.08976218303272
C            0.95994287509343       -1.35348970871985       -3.21352126335271
C            1.24542292458691       -2.22311394689145       -2.42988025339777
C            1.78763388139934       -3.30129445961864       -1.60575410609693
C            1.66172899303457       -1.69081779950637        0.23385760004190
C            2.06554205136325       -3.98617766559617        0.73588307525334
C            1.10556892686099       -4.59947699591282       -2.06863263745613
C            3.30237879623203       -3.36744020134206       -1.90772970820873
C            2.86480730774128        0.30192899843364       -4.39831584308868
C            3.33718807690750        1.52159366889734       -3.61213342682978
C            1.72614862693445        5.57334061012426       -3.52533088234877
C            1.13804528381089        2.77989683100410        0.39309230876496
C            0.57784189838500        2.92444925458430       -1.03313439076443
C           -0.21737662277592        1.67491405342502       -1.41661536390380
C           -2.25832283630163        2.77691346318404       -0.95653630776910
C           -1.47375388203196        4.03125480490259       -0.56738101729977
C            2.72429090630401        3.46758614400765        4.52985242106802
C            2.69603417680372        2.02417687489265        5.02872147446271
C            1.24759391308712        1.54557645630747        5.09429265430339
C           -2.20899401291929       -1.73845301611554        0.55009773367759
C           -3.01185306852786       -2.22726353554967       -0.50961253958987
C           -3.35577137826374       -1.41647028890024       -1.58619186624004
C           -2.87378536130682       -0.12647936820321       -1.61227418364756
C           -2.03370995839038        0.35011589063625       -0.59647043510411
C           -1.69823354075128       -0.44599469370704        0.47742102967251
F            3.80209498995769        2.88799029297973       -5.51081859457489
H           -6.96778662642206       -5.00592101429927        3.22664971773748
H           -6.14300240089446       -6.57092820367191        3.38872459806670
H           -5.41332893139359       -5.10327991736728        4.05457166751972
H           -5.16629574457329       -4.19983562208018        1.72479218016110
H           -7.44220126020668       -5.73983378756853       -0.49575730127011
H           -7.93331590686119       -5.48502500855613        1.19576669133533
H           -7.04323162213056       -4.20352459031156        0.32344153015819
H           -2.69284532526909       -8.74738345931178        2.96569759912303
H           -0.54630812509190       -7.73104573630575        2.17352841672734
H           -0.63472540224458       -5.42129613960826        1.20804594855659
H           -4.38701216910873       -5.26483299508094       -0.65623497862708
H           -4.70232408554313       -3.89162413770915       -1.73210112103677
H           -3.36094996598824       -5.59704081825110       -2.91626889451355
H           -2.38313854327543       -4.14171354459693       -2.67946962301751
H           -2.13749998279435       -5.55713244107958       -1.64479042137950
H           -1.07956341255281       -3.76342733970376        3.09506711043156
H           -0.39798832650966       -2.19168636782824        2.64352586692636
H           -1.23301306378512       -3.34301036772871        5.47910810287015
H           -0.30047415973416       -1.88310577111842        5.13663160466679
H           -1.79442960801647       -1.78003065519554        6.07195978599248
H           -4.00137552145961       -2.29991252959114        4.96037709219702
H           -4.08884710236256       -2.51159338798848        3.21073572144933
H           -3.39298986583927       -3.78276042705438        4.21570607915599
H           -2.80143399843366       -0.10205999164528        4.53886822138524
H           -2.84216654785613       -0.39476284094523        2.78754327645481
H            1.09896354222745        1.10149330246144        2.97650059636326
H            0.10392679090106        3.71748604431361        3.82988327282991
H            1.09799274390599        4.86712794784662        0.99037934187525
H            3.49083048746517        3.90230759714351       -0.43269369972984
H            4.56325649476602        5.34610296138503       -1.73831849927018
H            3.01422733989923        7.89408258001485       -2.31509570498223
H            5.47274393350260        6.74559335872088       -3.73046339320648
H            3.92582634843180        7.11882886141156       -4.48609011749882
H            4.94055660589233        8.42276308012234       -3.87337355571392
H            5.08873597494993        8.90853835250360       -1.44266471744554
H            4.35869735225419        7.81593950476114       -0.26778761975750
H            5.77823496703953        7.30532229620957       -1.18211443818604
H            0.92401471274489        3.03729583023022       -3.90676882968433
H            1.40519614282024        3.68985719120773       -5.48726762447365
H            1.67694779419402        1.49125863470035       -6.43056921317491
H            0.06976389039282        1.58745614591151       -5.66377347233718
H            1.33637213859321       -1.60582549303517        1.26848242594028
H            2.70977423244325       -1.35753787444494        0.17406492976606
H            1.04435783792824       -1.03115241271853       -0.37245937090182
H            3.14426876188487       -3.82226229008033        0.87590695136040
H            1.57550456410398       -3.85633357197245        1.70008605838622
H            1.90412273908829       -5.00765084905566        0.40513118916722
H            0.07870937935522       -4.60735208423535       -1.71657516611757
H            1.10742094804154       -4.64935041021768       -3.15428826085710
H            1.62759483337825       -5.47102106807338       -1.68536506870269
H            3.45470229967996       -3.50259037385935       -2.97477347981565
H            3.79703455442882       -2.44789160373865       -1.60272802952372
H            3.75369754108895       -4.20477372889994       -1.38394484772670
H            3.05261784613395       -0.60571304965247       -3.82649030513690
H            3.40123508560372        0.24857972717862       -5.35002306472564
H            4.41459881980356        1.47224254803528       -3.45503377125979
H            2.84305293861591        1.54543040777900       -2.63968790142726
H            0.88620675638703        5.04672491656863       -3.06468978784175
H            1.64768171884714        6.61789436191583       -3.22838235126011
H            1.67012375983048        5.52015542730926       -4.61024506009247
H            1.85462097101186        1.95682059615462        0.38492689364761
H            0.32465458808316        2.53918703356864        1.07240914874429
H            1.41380540118722        3.05971758696068       -1.72795530313125
H            0.37060182095380        0.77514069124739       -1.22317130451138
H           -0.45624723713764        1.70358298073731       -2.49618396182899
H           -2.50173820744617        2.81752737285460       -2.03459626083885
H           -3.18469191805914        2.72635553077513       -0.38356498930553
H           -1.33265903870825        4.04534617814921        0.52012875027499
H           -1.99650209872822        4.93805861975290       -0.87623160316415
H            3.74384520039941        3.81471321633908        4.35987289984190
H            2.23087007185623        4.12906772332046        5.24982217292536
H            3.16059792486353        1.96772345229489        6.01165981197520
H            3.26238679211595        1.39464733674510        4.34017599462519
H            0.69140361490879        2.13199971117935        5.83082722371898
H            1.19790520243057        0.49499428188291        5.37905948029672
H           -3.96776927273529       -1.78199154994725       -2.39676856656786
H           -3.11261620650577        0.51462123849439       -2.44782605758753
H           -1.02753981044740       -0.05967671983542        1.22612588291426
