151
 energy: -221.305943155343 gnorm: 0.007901047135 xtb: 6.7.1 (edcfbbe)
C           -9.53775915649617       -1.88187310261019        6.45809508506288
N           -8.00090147524668       -3.77296518116409        7.75785743495386
O           -9.14221226649883       -3.74188362324145        4.89267047968236
C           -8.53084788250747       -2.70347651233407        5.65640450383042
N           -5.95131696581355       -3.88590989205472        3.69671248498030
O           -2.43813013574306        0.41241848019835        4.59955434402977
C          -10.00583432949095       -3.29847538337011        3.86788776488315
N            0.61712242818071        0.98232737473390        3.05789604555184
O            7.88919776089783       -0.71181369651597       -5.89818059666210
C           -7.54429153591443       -3.40404179086678        6.57008707540164
N            1.78948617773552        0.28280336284080        2.75346119615007
O            4.63832115543366        2.48993248529544       -3.35199649445621
C           -7.19673545034463       -4.40529494080588        8.59416945887964
N            1.68274026462122        1.02146056330713       -0.71377986099210
O            1.46473474548935        3.06105064494651        0.19652146660129
C           -5.87656781454588       -4.70337800351096        8.29638755543178
N            2.40769684465170        2.19822931427237       -3.21006437906926
O           -1.21672557803787        0.88722606453274       -1.15236554553480
C           -5.38970020575734       -4.31608648414295        7.06104628361873
N            6.09034131525676        0.55205639128629       -6.41878455602108
O            3.13414594416172       -0.59160390799244        1.16917253019315
C           -6.22911910777539       -3.65901696808355        6.16232601182146
N           11.35630100557161        1.74438260799392       -8.57047524673195
O           -1.35109641323541        2.37569926491269        4.47483654426315
C           -5.68230318693559       -3.22261786151898        4.86952476109045
N           -2.77773310323281       -0.89938424442359        0.31383561902834
C           -6.65803209504094       -5.13657422891998        3.58811911962643
C           -5.72505911570099       -6.32580737089439        3.81286336944795
C           -4.80903330325026       -2.18103936863427        4.65254535096278
C           -4.22819773456365       -1.33333123876937        5.74271951565648
C           -4.58536033541411        0.17275220068852        5.77508156264911
C           -4.31496211154246        0.69057334735958        7.19330568726708
C           -6.06060493653374        0.38182006083917        5.42827243258764
C           -3.73599104572179        0.99506585686673        4.78259786006603
C           -1.37802927665894        1.16679186629100        4.40266599029945
C           -0.17205628625277        0.29742732126157        4.07189295799310
C            2.09767527473272       -0.01326208960688        1.47964717424696
C            1.05819908452856        0.42023329240748        0.44379109807295
C            1.80575470264846        2.35771479772399       -0.74853293787357
C            2.39557385127548        3.00231250033945       -1.99648323980491
C            1.76627553132154        4.40696703905738       -2.20430642035285
C            0.24400084668085        4.39979911056512       -2.34682474462715
C            2.41671565599141        5.11846583753384       -3.38677063612931
C            3.57100291973586        2.17321091217588       -3.88214671547403
C            3.61649839502450        1.73691445285068       -5.36197845554619
C            3.82654451008886        0.22307955371082       -5.51345676895788
C            5.30006059875985       -0.13757786565447       -5.41138924159032
C            7.39099964806447        0.23382221260342       -6.51720333861693
C            8.20291922951432        1.04593610712887       -7.38620953988338
C            9.07586335655632        1.62790915068773       -7.97927721340595
C           10.05730279223238        2.41264521936220       -8.72647859031903
C           12.50169431448876        2.46793612158952       -9.08340776197633
C           11.36995742003993        0.37185106565089       -9.03457531852321
C            9.57187623418679        2.53949469068323      -10.18661516601432
C           10.09339987840908        3.80560007543225       -8.07459232894883
C            5.46166773843619        1.66027820292179       -7.10046084567754
C            4.72442385306812        2.52157450495588       -6.08247738559546
C            1.14630099572159        1.67458075359567       -3.70073909839930
C            0.16162743153242       -0.76845908982105        0.09270395081661
C           -0.84507316058001       -0.48015329107439       -1.04307026353235
C           -2.08871009114298       -1.37364916561769       -0.86071280572203
C           -3.26217211472080        0.44875966185141        0.09792749844673
C           -2.05597587381667        1.35828869819579       -0.11171150088065
C            2.66705376665729       -0.04344246344645        3.86696322234326
C            1.88209363910685       -0.80617420485698        4.93442540434226
C            0.64493800103688       -0.00522743261494        5.33990124344205
C           -4.51105346882623       -2.20267196578443        3.25645248044111
C           -5.22677362548173       -3.29457664478759        2.69856222146801
C           -5.10313824815352       -3.62670526039511        1.35433159649194
C           -4.29519587172923       -2.84856445091465        0.55079652431031
C           -3.60279598118440       -1.74944826821164        1.07795879064676
C           -3.69321631085278       -1.44600118787520        2.42577533395157
F            2.40677753400598        2.06325874470791       -5.99430081027349
H          -10.13173044695887       -2.54895300035883        7.07812511884275
H           -9.00197739416794       -1.18927925558552        7.10106503893559
H          -10.19022216766719       -1.31821703546578        5.79528731875971
H           -7.97584014323263       -2.04586909884609        4.96463529921493
H          -10.97848639175485       -2.98270909677958        4.27044446240196
H           -9.55080505074391       -2.47050000319188        3.30441722216441
H          -10.14935670965859       -4.15883592634856        3.20806929869134
H           -7.63788150030762       -4.67459746386240        9.54391819040900
H           -5.25124206321935       -5.21815611256012        9.00773083952295
H           -4.36553479928859       -4.51575620635948        6.78056248986197
H           -7.46577991323106       -5.14513982523761        4.32324371198116
H           -7.10081315295979       -5.19055818262410        2.59124191587883
H           -6.26804327688533       -7.25444516455685        3.66551756026307
H           -4.89177278184079       -6.28880550734915        3.11492049636155
H           -5.33135789268100       -6.31018853059722        4.82628368688224
H           -4.56956872748905       -1.75901482797453        6.68906453005010
H           -3.14025794692854       -1.42212828176552        5.71148985034707
H           -4.53926238363366        1.75295002600193        7.26005981978776
H           -4.93717906006038        0.16617677955644        7.91530522787287
H           -3.27068250634280        0.54112376837310        7.46266550566172
H           -6.26998499069828        0.01774280147369        4.42473604736458
H           -6.68649424050392       -0.16307271610162        6.13057841470497
H           -6.31838245984733        1.43647619041704        5.47737206515222
H           -3.61451707880049        2.02640525565536        5.12794291201990
H           -4.21742835179537        1.01184416343464        3.79947559172576
H           -0.53214230191296       -0.64182797852988        3.63771229207466
H            0.83246146747746        1.93370997929862        3.36515027716720
H            0.47156870333332        1.22046870686877        0.89951883654257
H            2.14222529879291        0.42530832511945       -1.38366809739630
H            3.45589439226266        3.16967415761459       -1.75432657121647
H            2.00789958059754        4.95114330361450       -1.28564337310261
H           -0.20988892712240        3.74867581877085       -1.60454883476733
H           -0.13137417247733        5.40752150900619       -2.18488161064079
H           -0.06549639953868        4.08049359871900       -3.33647140957611
H            3.50038237496216        5.10481869992088       -3.29722223119295
H            2.14686516931496        4.63757534206952       -4.32523965759920
H            2.08263743484019        6.15092794270242       -3.42600131477119
H            3.28158019343102       -0.32243509407915       -4.74398185345339
H            3.43062746600265       -0.07097662325874       -6.48724365344799
H            5.44213843917922       -1.21540981294359       -5.53931390776530
H            5.68332200365136        0.12852570758025       -4.41732081941030
H           12.55367037405341        3.45845359991185       -8.64104410444728
H           13.39665307331260        1.92002635427025       -8.78887933273180
H           12.50596964096815        2.56015318968625      -10.18120723925217
H           12.25562013277612       -0.11863397270228       -8.62888760953521
H           10.48884374177897       -0.15110817185504       -8.66354094392106
H           11.40261562398650        0.28705902612344      -10.13254620874901
H            8.63169077100900        3.08336334869806      -10.21337877903099
H           10.30812076770739        3.08388438744668      -10.77366128470590
H            9.41771629891148        1.55797742893076      -10.62778462459265
H           10.58354534340446        3.74487545195684       -7.10672085081783
H           10.62146186867263        4.51307831324640       -8.70772666210700
H            9.07807913737751        4.16571059498967       -7.92935836228907
H            6.23461829183940        2.24497745596061       -7.60092509777507
H            4.76537402353555        1.28296188122120       -7.85729661239685
H            4.27517282182710        3.38589867026886       -6.57175941431940
H            5.43355122085162        2.87574812500737       -5.33169200559788
H            0.47585763942318        1.53808196868410       -2.85725285579439
H            0.67733455024766        2.35121399698641       -4.41395318320697
H            1.30433627248184        0.72014499452816       -4.19539709237698
H            0.78048884496166       -1.61962855877605       -0.19515527713157
H           -0.39587423632953       -1.03199094100282        0.99249340506381
H           -0.38213253245381       -0.69252944661749       -2.01154524838650
H           -1.77608392556082       -2.40732863558716       -0.71242527920109
H           -2.71196044628080       -1.30758980995468       -1.76928116931939
H           -3.91594004014174        0.49227406184364       -0.79132809900463
H           -3.82916422053177        0.78454838977626        0.96530121820840
H           -1.50236333016723        1.43867480002644        0.83156569303166
H           -2.36513440165821        2.35726220677985       -0.42419383248902
H            3.48730612667341       -0.63944646822867        3.46673310194712
H            3.06822677550869        0.88713807552310        4.28348208326722
H            2.52272859525782       -0.97647366138501        5.79827467800022
H            1.57497485978755       -1.77330680208969        4.53396374760191
H            0.93937295684037        0.93647897286116        5.80916860336676
H            0.03512172217700       -0.57011331796915        6.04395364424644
H           -5.62850906690614       -4.47216969201013        0.93651126444579
H           -4.19785727720866       -3.08822933594886       -0.49743885688984
H           -3.10111054125670       -0.63528554567830        2.80788267726718
