151
 energy: -221.320185298378 gnorm: 0.009374823717 xtb: 6.7.1 (edcfbbe)
C           -9.60258238299119       -2.86845330214450        5.76014972696659
N           -8.23922743602349       -4.85404054347539        7.21684446979421
O           -9.12206296807518       -4.88403121171652        4.41995980010533
C           -8.55478944223588       -3.76414143186623        5.09980200775446
N           -5.56085627545144       -4.38192844630374        3.58513085652001
O           -3.13906028258797        0.55476794353358        5.08439045935414
C          -10.02928066811634       -4.56534839475985        3.38715526477858
N           -0.60086351805647        2.33731471153695        3.30149215434964
O            5.18780809634466       -0.98854709527397       -8.56473280696916
C           -7.63170653582729       -4.36115860952091        6.14543170079916
N            0.76825658360819        2.58757375062461        3.43681997377731
O            5.15613903835767        1.96475727611764       -2.87092873703265
C           -7.52118632871077       -5.41591889006610        8.17099230435159
N            2.06345628930187        2.05142083546775        0.08570341550942
O            0.95939372356505        3.71007571435231       -0.95736056260867
C           -6.13901904879957       -5.52193338030837        8.11770742445986
N            3.19296260917817        3.07107640466796       -2.99599771756930
O           -0.97703706307825        0.99973352792371       -0.68344942433270
C           -5.49646343113805       -5.00379538640829        7.01020600706512
N            5.27709583942922        0.98660780159346       -7.45808927253388
O            2.83427962338197        2.56516280019385        2.55547663260190
C           -6.24102676329821       -4.40822122307991        5.98906165266237
N            9.77653485511192        1.52127359089475      -10.53869375500771
O           -3.29841836442539        2.20575885854405        3.57887302816708
C           -5.50290583875118       -3.84479683459366        4.85195408031043
N           -2.08900505612604       -0.90061704548433        1.06670370381667
C           -6.25549919885354       -5.58983280258496        3.21558470324179
C           -5.36825899368062       -6.82203674737626        3.37905934611556
C           -4.60770189399860       -2.79890645815287        4.88991383125444
C           -4.23663033783435       -1.96199118052815        6.07311500434024
C           -4.96323701483883       -0.60181306499821        6.19243307343191
C           -4.58656729215763        0.04323654562567        7.52860903191815
C           -6.47651739594958       -0.80013453389623        6.12914313126985
C           -4.55724973485142        0.33983289191558        5.05330013867787
C           -2.63822805970079        1.47860936745704        4.28700503187500
C           -1.12343533632275        1.53915608678748        4.40317086946538
C            1.62909901072228        2.35849177288825        2.43424380067642
C            1.04543330825593        1.87618946215167        1.10263646050512
C            1.98465072856768        3.05468228644909       -0.80051739143742
C            3.26977942581364        3.37786406463397       -1.56837878878441
C            3.56558110679006        4.87944681291549       -1.33112301769364
C            4.70475373593625        5.38105973987229       -2.21238183081064
C            3.91119356168581        5.09254089400452        0.14182331723713
C            4.25595507631598        2.46638906853491       -3.54746483631164
C            4.36976511684525        2.33815580019810       -5.07920612629088
C            3.71966598083053        1.04065967780962       -5.56635885588525
C            3.88288213125072        0.92360135339285       -7.08073720433567
C            5.81031871077605        0.02212295605723       -8.22564439466874
C            7.15032760673616        0.22446862874490       -8.71438877533430
C            8.18869478447768        0.22598226778933       -9.32671125840526
C            9.44421978465461        0.16831681412064      -10.07422774572336
C            8.73909226459904        2.13509980331313      -11.34454928428894
C           11.06268389010532        1.64521189937674      -11.19421025111149
C           10.52773894882714       -0.34594546256060       -9.11163385004324
C            9.22982177933303       -0.86305651773075      -11.20500201593346
C            5.96895724897735        2.17660582129867       -7.02161448869796
C            5.84384512149248        2.35123504662916       -5.50474418372543
C            2.06344062240595        3.61058673370303       -3.72781054772870
C            0.53718695116191        0.43368466885518        1.18580601411670
C           -0.17042018939739       -0.01487195712749       -0.10768689998897
C           -1.02005434786874       -1.27098470057971        0.15978428943130
C           -2.94301951112161        0.10268235621896        0.44669055077605
C           -2.10853321698114        1.33067055386305        0.10477524786771
C            1.21247515305293        3.16042046863052        4.70048041601688
C            0.77432298610327        2.26174521113781        5.85240559737259
C           -0.74096922830034        2.08702427770030        5.79174067632820
C           -4.07698810539613       -2.68585148913001        3.57203159605695
C           -4.68510960181368       -3.69910989053252        2.78923683019035
C           -4.36452187864655       -3.85734996361996        1.44454423764563
C           -3.47667784491366       -2.97014520931993        0.87351259358127
C           -2.88632971637208       -1.94657069400963        1.62961393128997
C           -3.15390521455852       -1.82937228003503        2.97703207267861
F            3.76199685709937        3.42499885689592       -5.71532108637540
H          -10.23226691819202       -3.47526082146686        6.40441151592194
H           -9.10206933411276       -2.11458360273968        6.35976343288104
H          -10.21218454256179       -2.37026496708773        5.01094379255085
H           -7.96577263845305       -3.17555694909706        4.37498739028388
H          -10.19537185273091       -5.49482611165691        2.84493386373038
H          -10.98069739093943       -4.20316710902532        3.78616306948631
H           -9.60574526206042       -3.81089035976868        2.71186868718082
H           -8.08391265732091       -5.79259499922174        9.01576351097729
H           -5.58948967942991       -5.99359239636293        8.91585466473952
H           -4.42162729862928       -5.06068814009520        6.91059293857146
H           -7.14323812713446       -5.69133680331584        3.84306754662302
H           -6.57944356025351       -5.49483721029553        2.17594684386232
H           -4.52638335796020       -6.78847867403856        2.68596231544396
H           -4.98419457211570       -6.87286131622195        4.39911049703957
H           -5.95205260158804       -7.72227641915087        3.18330315402146
H           -4.45287273791199       -2.52555846779764        6.98287966066590
H           -3.16316692837245       -1.76735542688416        6.03634109181517
H           -4.94009909572043       -0.56609068960452        8.35581540421101
H           -3.50724556369341        0.15148308967718        7.60783844710813
H           -5.03869917267362        1.02943328185550        7.61026838524942
H           -6.77127635718282       -1.19141773409968        5.15923335377223
H           -6.78729381746521       -1.50712555632816        6.89423728604300
H           -6.99360593402383        0.14161013955076        6.29387705017197
H           -5.05859297472848        1.30814580185937        5.14531793054375
H           -4.81892572688147       -0.08921648046666        4.08143517979236
H           -0.72478117861071        0.52309958210539        4.30316016331801
H           -1.12931401240020        3.20533138551055        3.23201982908088
H            0.22327093895879        2.54133576083895        0.82129755392091
H            2.95615380700162        1.61826463991305        0.27927001850429
H            4.09953176081083        2.78153587629342       -1.17797474432858
H            2.65086370655493        5.43516630861684       -1.56478183029761
H            4.45041885320204        5.32203877227315       -3.27086827150240
H            4.91669870261484        6.42058124750495       -1.97226034077993
H            5.60363444013269        4.79063550215716       -2.03789093965110
H            4.03011729369798        6.15249363075950        0.34689096450440
H            3.12997205849838        4.70347905806017        0.79199947498387
H            4.83949392492144        4.58403555108483        0.39014615040089
H            4.21960042408622        0.21324597925597       -5.06394107089016
H            2.66077424976196        1.01468933278191       -5.31435694471532
H            3.34918448928462        1.74895479607573       -7.56558486438813
H            3.48075213010105       -0.02518073379514       -7.44149032894010
H            7.76853178086784        1.97249690511733      -10.87953927450480
H            8.92972519663507        3.20721039783644      -11.38768647857398
H            8.70705385413414        1.75036523590137      -12.37483483883705
H           11.21795717692159        2.69785915934036      -11.42453078970362
H           11.85853743514556        1.32386682652080      -10.52880648348242
H           11.12900236554584        1.07963496847002      -12.13468534010561
H           11.39470978730046       -0.69396677522460       -9.66516551111207
H           10.82300567005544        0.44622202659518       -8.43055569837311
H           10.13330560232524       -1.17797411211582       -8.53394735036913
H           10.13093195275028       -0.95622719476349      -11.80529849365314
H            8.99555335338795       -1.83182650675006      -10.77243133319280
H            8.40147014853987       -0.56702749490562      -11.84468027402578
H            7.01941429602504        2.10352139124464       -7.30542461694436
H            5.52425525936957        3.04764654795830       -7.51736213198559
H            6.29218235226778        3.30171980162221       -5.21419380950922
H            6.35711518005655        1.55249696240725       -4.97191800252552
H            1.73527690279853        2.91228180731322       -4.49527678712290
H            1.24371302253843        3.76511435654376       -3.02583349354569
H            2.30866622574636        4.56717473460798       -4.19663398513834
H            1.37016738218167       -0.24113978858801        1.38134201441221
H           -0.17951490264814        0.36601391157611        2.00155420981491
H            0.57179727619783       -0.22549644193268       -0.88474601331914
H           -0.41059650658736       -2.04606574001363        0.62425112598694
H           -1.39683143000918       -1.64349863307283       -0.80901188902187
H           -3.42351291799890       -0.29159661204577       -0.46592244765630
H           -3.72051832623387        0.39147130501001        1.15670678670006
H           -1.80769171444211        1.82215159018015        1.03693426712774
H           -2.68425297896597        2.03047911461687       -0.50198926233948
H            2.29576067405659        3.25884823290989        4.64725795072287
H            0.76353624893097        4.15390077629319        4.80664125195372
H            1.06951440438671        2.71111504496311        6.79901014168800
H            1.26431622602562        1.29120748220746        5.75898698826283
H           -1.23218131110937        3.05047908400478        5.95138146249746
H           -1.08430915513367        1.39282408520600        6.55692380282819
H           -4.81088310764070       -4.64018360262015        0.85030688553878
H           -3.23974639709475       -3.05873933847940       -0.17686772420672
H           -2.65306754667161       -1.06214893281914        3.53991196295364
