151
 energy: -221.325194699234 gnorm: 0.004869776692 xtb: 6.7.1 (edcfbbe)
C           -9.06556701594500       -3.59055810677052        4.18660879124253
N           -7.64350893046143       -5.43891923113316        5.69284918623102
O           -7.80811191949855       -4.98894258775176        2.62969757039303
C           -7.69128436150287       -4.05583535869314        3.70691386126351
N           -4.48216666128091       -4.38320089719521        2.71675285140517
O           -2.93303208500514        0.74850645470266        4.84108800622534
C           -7.91189301632501       -4.38521508068690        1.35879579445950
N           -0.27961189628146        2.81454691468783        3.72620075098184
O            4.90818515876806       -2.40611837894059       -5.99101044239402
C           -6.92804933207914       -4.73354296693701        4.82925576871432
N            1.06324714486448        3.05584612973957        4.03320947526080
O            4.33182559081886        1.80811628818965       -2.03272709393911
C           -7.03858100539361       -6.02414129909218        6.71118317476617
N            2.48846921608648        2.96955240361696        0.69287669945629
O            1.43814890498971        4.87470601717413        0.10267443691746
C           -5.67756809714473       -5.91585398355403        6.94993322710477
N            2.75680953307739        3.38829739171356       -2.33658882353124
O            0.13837221787163        1.64625673353580       -0.62752371589053
C           -4.91928628588729       -5.19282199573365        6.04698342917968
N            3.94820444988220       -0.35156688599635       -5.96554744893505
O            3.19407462066221        3.17789485337513        3.31444630656228
C           -5.53709491144000       -4.60014842858796        4.94751011364118
N            7.34812435423716        0.89542186670727       -9.88773540509115
O           -3.00425763419109        2.72970240038171        3.79601205469003
C           -4.71513407619763       -3.87084766576892        3.97399901873076
N           -1.22092655073620       -0.36969314752368        0.76785423381548
C           -4.78402277358596       -5.73389906698113        2.31037651449202
C           -3.71119205758389       -6.70556918534013        2.79916950976462
C           -4.04902817488048       -2.67890882784836        4.14201132740262
C           -3.98189789030727       -1.87322454353586        5.40043474893812
C           -4.85975483289165       -0.60268766474889        5.47359955511919
C           -4.85216040212616       -0.09706043681309        6.91872512653573
C           -6.29224001216212       -0.91112107488647        5.04188665818444
C           -4.31852474596666        0.49625012058124        4.55197727452454
C           -2.39573016589098        1.85962443364302        4.37918978563383
C           -0.91145072513991        1.93367217241686        4.70132330457071
C            2.00913476069218        2.96150678674608        3.08471703293626
C            1.50654844155139        2.60178478794789        1.68539480867444
C            2.33778298405475        4.06041156703800       -0.06390349563977
C            3.32480819374669        4.15825709383783       -1.22989318879457
C            3.61448503998544        5.62001800388293       -1.60976089643512
C            4.24079503539360        5.72637776824668       -2.99753797913978
C            4.54749945744313        6.21191570677092       -0.55450021748739
C            3.37400489985158        2.25338157072489       -2.67483654455928
C            3.03025102881944        1.50261408533616       -3.97005101822170
C            3.02771984846702       -0.00850351938260       -3.72709373392384
C            2.90095678777351       -0.75519750201073       -5.05400883271809
C            4.89536748276045       -1.22454373384000       -6.34732525495682
C            5.89715026968812       -0.72329124830890       -7.25230612904623
C            6.77863068000097       -0.46122706610862       -8.03007077579766
C            7.84925958320718       -0.13640840282502       -8.96930185895782
C            6.16947327614875        0.49262381227278      -10.63007533465700
C            8.34119891721057        1.45808935173646      -10.77985819052966
C            9.01846878375210        0.41127209358781       -8.13409246091117
C            8.27687139052948       -1.45255637788324       -9.65313863905967
C            3.94633605956004        1.05685012595246       -6.27985054379675
C            4.10375741570044        1.88414441628043       -5.00144387353724
C            1.47447475845117        3.83421558027816       -2.84844927214327
C            1.14754779094190        1.11678822340486        1.57802322881791
C            0.84547648625544        0.67759991082978        0.13058109028650
C            0.06006825792878       -0.64405187080965        0.15210461360371
C           -1.97682844044047        0.56138654627206       -0.05289167586023
C           -1.18643220012209        1.86265130152658       -0.16812815672876
C            1.36327496360817        3.54547458690556        5.37144090607961
C            0.77103753422641        2.60280738944372        6.41562700970778
C           -0.72264613210815        2.42335461351676        6.14963866656764
C           -3.35724275725981       -2.43757425642570        2.91709793132377
C           -3.63683182496755       -3.53423734242532        2.06082719716051
C           -3.07984789444309       -3.61913636451895        0.78936503737601
C           -2.26987909774275       -2.59028361261618        0.36094927330368
C           -1.99671320982097       -1.49273402453481        1.18895166246047
C           -2.51584933265301       -1.42445685779481        2.46519637932795
F            1.78598579755925        1.83729214788449       -4.50392996790292
H           -8.95225520500101       -2.88769948869396        5.00559219270205
H           -9.60579692660767       -3.10652892509802        3.37758072948196
H           -9.62835977601835       -4.45251128160693        4.52960644846959
H           -7.09955071027663       -3.19737119218666        3.35688894606536
H           -6.96281263887234       -3.91606817814651        1.07238891770641
H           -8.15254473854790       -5.18516114780503        0.66279285450215
H           -8.70313088880023       -3.63133205951126        1.33071227958920
H           -7.68392599149888       -6.59387579829510        7.36551574456840
H           -5.22758435291801       -6.38736975658438        7.80823171182484
H           -3.85162420500110       -5.08905599749194        6.17612813156648
H           -5.75970460228479       -6.01418818918478        2.71322359873256
H           -4.84445695257063       -5.75840114038770        1.22079927027966
H           -3.93313701655824       -7.70942849014180        2.45037650243187
H           -2.73408045967847       -6.40823122841235        2.42447455557496
H           -3.67846744213430       -6.71386606115796        3.88639496031595
H           -4.28104770218749       -2.51871661370936        6.22846958008015
H           -2.94556895226290       -1.57015711077990        5.55977934908952
H           -5.42043009073029        0.82629834818866        7.00279268739068
H           -5.30097195381129       -0.83615823141408        7.57713893484322
H           -3.83404571715748        0.09086010486888        7.24916617156505
H           -6.69214842224966       -1.72841442864410        5.63577218038044
H           -6.92904748792531       -0.03964364372173        5.17411604192713
H           -6.31747721246772       -1.19903847713603        3.99464402538674
H           -4.87820855561980        1.42743029017451        4.67858332010696
H           -4.39168190696531        0.18961964226075        3.50466610531866
H           -0.47421520619188        0.93495772379574        4.59750806457357
H           -0.80654335148386        3.68977474979726        3.68226641194546
H            0.63199949515098        3.22679015862677        1.47857108620874
H            3.28631585455815        2.36540485840800        0.56323770315659
H            4.26268407399727        3.66177030024363       -0.96439938865481
H            2.67297450171879        6.17734891817016       -1.58602832386579
H            3.52807272674876        5.46144139598503       -3.77465389574312
H            4.57171669478568        6.74751345150952       -3.17336351076153
H            5.10281025240520        5.06359477969407       -3.07565744032587
H            4.12322878839043        6.08987005875541        0.44010708111104
H            5.51468547887367        5.71498896339358       -0.58189084636463
H            4.69622001125321        7.27210422891112       -0.73825372703522
H            3.95731405603458       -0.27230823302511       -3.22313574652789
H            2.19004710475196       -0.26470938288963       -3.07673644844578
H            1.93240574501390       -0.52804308226159       -5.51172195219970
H            2.98649657262770       -1.83170375879170       -4.89746298660319
H            5.69917451930854        1.38749359198284      -11.03760815416908
H            6.39597215769780       -0.18642532745797      -11.46569550796032
H            5.46454965840443        0.00284981411386       -9.96116161258429
H            9.15305579938434        1.89889973210248      -10.20907554036270
H            8.75380383588093        0.72690151928809      -11.49088608051279
H            7.86120597652092        2.24904625941885      -11.35393196024271
H            8.79349602641740        1.41939999538779       -7.79832560377424
H            9.16749166667607       -0.22249210894741       -7.26320109388635
H            9.93540136445077        0.41511930822939       -8.71594867672087
H            7.43496189693779       -1.91428389635807      -10.16298419044794
H            9.06976348125142       -1.26054655511700      -10.37138783531650
H            8.64467107718582       -2.14788233845457       -8.90344421004545
H            4.76171079702190        1.27565688149514       -6.96956425058646
H            2.99181559950448        1.30625698461660       -6.75547496419444
H            4.01687639988403        2.94469132876953       -5.23892570297992
H            5.07826932381698        1.70172354335152       -4.54792492909037
H            0.72937463379633        3.04838081715521       -2.72799211009552
H            1.15363320725011        4.68942104546301       -2.26118363693608
H            1.53722668201067        4.11971159974409       -3.89699727000621
H            1.97678769861606        0.51364563623166        1.94828872147225
H            0.26533513997247        0.92792531930132        2.18735309817430
H            1.78187975552777        0.54480574380108       -0.42403472881192
H            0.59183628742212       -1.38728101676469        0.74650866075168
H           -0.03463913078578       -1.01223425597657       -0.88447454129839
H           -2.16959570050342        0.14885909794666       -1.05864599431742
H           -2.93251906253119        0.76667319453599        0.43259052953147
H           -1.17974871967902        2.36051790024211        0.80805660378733
H           -1.63916578681912        2.52792775872399       -0.90477154796512
H            2.44798275147877        3.61066790936632        5.45214578004435
H            0.93434792270141        4.54862704866724        5.47992133390792
H            0.93109695823365        3.01970994418895        7.40890738340351
H            1.27416064424202        1.63694989469314        6.35827308639781
H           -1.24231381039047        3.37628053252838        6.27618856683011
H           -1.15291121234372        1.69809735500064        6.83864037711834
H           -3.27575422036093       -4.46350907934448        0.14560205898158
H           -1.83765278773006       -2.62905113404350       -0.62817620751974
H           -2.24921438804396       -0.58645277655093        3.08524640583030
