151
 energy: -221.320144457764 gnorm: 0.007127821366 xtb: 6.7.1 (edcfbbe)
C           -8.94352386453322       -3.37972664177079        5.12540656812852
N           -7.35932222487177       -5.53238694580195        5.95485499517471
O           -8.37237366561677       -4.82663192616192        3.22154077323249
C           -7.85475497544306       -3.94410750070517        4.21419673397057
N           -5.16741488866756       -4.01395176051034        2.38112687227742
O           -2.78371360825622        0.62491093710862        4.82935813176544
C           -9.18288446566080       -4.21396337669259        2.24120946087184
N           -0.74758597194406        3.14487214684309        3.36407737775524
O            8.54821905948118       -1.34644168645637       -5.23480726327134
C           -6.84985939582288       -4.75740977575269        5.00921691671486
N            0.57038539125530        3.59022679941596        3.50303785486416
O            5.79601839393229        2.53096467273183       -1.66642418119382
C           -6.55325011108599       -6.27334664936801        6.69403882147211
N            2.08060454612533        2.98656135410359        0.23728999570349
O            1.47361466306324        4.96136117228290       -0.65685440560885
C           -5.17562995699562       -6.27559445456414        6.54103414675155
N            3.59936709118298        2.65753567629287       -2.12236882795714
O           -0.58117960949694        2.02785492006831       -1.02028951210163
C           -4.63331962013514       -5.47403596349791        5.55287536905325
N            6.35015355795872       -1.02924406589231       -4.73761585339479
O            2.66314037609700        3.70378540944297        2.69558230655428
C           -5.47081209917469       -4.69766016405880        4.75255808967271
N            7.87134559011744        0.78854192242657      -10.00915931135302
O           -3.40789332511249        2.57054968347498        3.90613126836693
C           -4.88444165149788       -3.83795047110102        3.71988619925590
N           -2.16256711329150        0.15473634940769        0.33551973296195
C           -5.69485677230704       -5.22439914059870        1.80034211981674
C           -4.57937714784625       -6.23822713725486        1.54943756642487
C           -4.03186312901427       -2.77078687630770        3.89338629269765
C           -3.46346020650872       -2.24430346116045        5.17121832386218
C           -4.22996902196255       -1.06372650537971        5.80956107827573
C           -3.60499801865154       -0.76414427374099        7.17477088889091
C           -5.70690259495611       -1.41469021038687        5.98587328546778
C           -4.14703711817189        0.18775454409072        4.92701866446846
C           -2.55340950027762        1.81769605859744        4.31829068289793
C           -1.07554726225538        2.16004889569098        4.39094683149385
C            1.48083455839080        3.41513473225689        2.53334234665956
C            0.97967580384555        2.91815153417031        1.17260828827618
C            2.26495725502043        4.03447021816177       -0.57995030336298
C            3.56051582568908        3.92793563447594       -1.39428600947512
C            3.88455958995907        5.14073452481598       -2.29375634908576
C            4.08980958238999        6.37831100721853       -1.42037453698124
C            2.83856199250805        5.42419371039184       -3.36887531925789
C            4.79012156965644        2.04285238995586       -2.18112226312190
C            4.92424975679531        0.67944480008856       -2.89853549603222
C            6.27607999342983        0.05137314841699       -2.54538832381096
C            6.51947914916584       -1.24630363045070       -3.31926863207028
C            7.40211190207436       -1.03714256699478       -5.57905564749369
C            7.09934177951051       -0.63754261269570       -6.92903955086263
C            6.90782232318457       -0.31333410294888       -8.07406816855536
C            6.65976204398202        0.19319723254882       -9.42331524104789
C            8.45493532936893        1.83511979986628       -9.18831515372537
C            8.89090586858295       -0.17913906918856      -10.37275809251195
C            6.14122505405035       -0.95891999882834      -10.29766392259865
C            5.55443385655296        1.26228973595721       -9.33350529634063
C            5.03559813395240       -0.54841844892240       -5.08488323012227
C            4.77733208433820        0.80511491987637       -4.41659574042549
C            2.39024380022441        2.23702975621545       -2.80762801856234
C            0.38672435024825        1.50741471149468        1.19205043535148
C            0.03459446257822        1.02427600860032       -0.22723844058502
C           -0.85104803472721       -0.22671540477781       -0.15093528894906
C           -2.78221609001729        1.09011266265611       -0.58326659766242
C           -1.90175964890816        2.33937780418029       -0.60764079589294
C            0.93565275216115        4.15162095985757        4.79562547581490
C            0.67467392080752        3.12376637177870        5.89360897179870
C           -0.78070405768171        2.66742572413003        5.81711341408069
C           -3.76639169918582       -2.25733657488232        2.58925950143316
C           -4.49378430790904       -3.05699785345004        1.67379340174160
C           -4.47745947252661       -2.78520575519276        0.31026388192992
C           -3.72742620088793       -1.71705970029278       -0.13023921346149
C           -2.96908560626878       -0.94095367587904        0.75976890198798
C           -2.97625123910355       -1.21437855707083        2.11172014958860
F            3.92341197825174       -0.18151328779685       -2.41362717241647
H           -9.64636296422261       -2.78307920476229        4.55069791478115
H           -9.46786514154165       -4.20075905017102        5.60431027024363
H           -8.49012786905210       -2.75330408850299        5.88720333701084
H           -7.33225002102374       -3.11570357736590        3.70582462905082
H           -8.77771760220799       -3.24213083672031        1.94297895095042
H           -9.18046835451457       -4.88279456186294        1.38530000158204
H          -10.20839040914061       -4.08725454447447        2.59278696691996
H           -7.04156413849560       -6.88399294892479        7.44123059780119
H           -4.55095626483350       -6.88822843731949        7.17055197570805
H           -3.56663106573969       -5.45215870001384        5.38230439152826
H           -6.44198614735019       -5.64621600400553        2.47427709591711
H           -6.18677854292890       -4.96556598803950        0.86045001232027
H           -4.12437666997314       -6.53677717694192        2.49122413781021
H           -4.98256626048605       -7.12095656816626        1.06254032185390
H           -3.81026891216724       -5.80426994793009        0.91401714162100
H           -3.43653752333276       -3.04845479707722        5.90735053536179
H           -2.43985754842004       -1.91635589716901        4.98239870254269
H           -4.07423056833739        0.10669807290661        7.62553745208734
H           -3.73988996394613       -1.61170999602780        7.84096362178092
H           -2.54115514709278       -0.56945224423957        7.06968639455447
H           -6.21224536142094       -0.65528374855105        6.57444547419057
H           -6.20048431444831       -1.48608080946814        5.02245225714377
H           -5.80765952565557       -2.36870885158522        6.49309410400361
H           -4.74084946434148        1.00356083823420        5.35274323319630
H           -4.51915295303340       -0.01668288637017        3.91865405876226
H           -0.48552202127842        1.25850445003829        4.19877047693033
H           -1.40033573391554        3.92748366188732        3.42558068669370
H            0.23368507364062        3.63694161364661        0.81620151307075
H            2.82953524462098        2.32365412542117        0.37020751386203
H            4.37584137652239        3.87371183343725       -0.65805852743175
H            4.83968382342169        4.90252695704110       -2.77888988237877
H            4.82131867725500        6.18328593003232       -0.63858895399249
H            4.44543052720764        7.20676149963425       -2.02709294999876
H            3.15018239842823        6.66417727569400       -0.95366726456089
H            2.81534432059066        4.64263841683474       -4.12047504111483
H            1.85563103131493        5.52140379670492       -2.91783892919043
H            3.08334770311828        6.35933765908985       -3.86550150947210
H            7.05389918417082        0.78039869829652       -2.77190223466236
H            6.30613550347656       -0.14826990509977       -1.47380624760069
H            5.80682891551845       -2.01106055993008       -2.99570762291603
H            7.53637669679990       -1.60162937045230       -3.14516017569820
H            8.86742299107098        1.45597729472705       -8.24011639200611
H            9.26208305466605        2.29949311134091       -9.75246279182624
H            7.71640912660757        2.59900373391941       -8.96819581300456
H            8.52931676995657       -0.82427723831548      -11.16825091426862
H            9.75540762576737        0.36438023998711      -10.74996695496040
H            9.21740648199132       -0.79717860014894       -9.52194760139454
H            5.15999037745052       -1.26635198940860       -9.94672505946109
H            6.06002704962238       -0.61755024808450      -11.32543992619100
H            6.79791034764131       -1.82252153689620      -10.25130688008163
H            5.50083672197419        1.79190426794010      -10.27922128768880
H            4.59881996080953        0.78643024362875       -9.13496851041181
H            5.74740411302979        1.97211427946243       -8.53498531479928
H            4.95396026180732       -0.45572589219106       -6.16681744336749
H            4.30010814075671       -1.27472000853566       -4.72587262426354
H            3.77935515003994        1.14185307291768       -4.68193655227555
H            5.50660798400738        1.53864629706957       -4.76238422612056
H            1.52981838935327        2.69709294065348       -2.32664157943738
H            2.40296563306105        2.55368621710484       -3.85134922725946
H            2.26804472182266        1.15863932006089       -2.75953907400910
H            1.10532520425583        0.80954064245749        1.62161052387757
H           -0.51912328931122        1.51125940744065        1.79295529392413
H            0.95189158851946        0.78264557679658       -0.77193409830476
H           -0.41315953859253       -0.94945486295290        0.53791903392790
H           -0.90850478767372       -0.68502720950603       -1.15485868439566
H           -2.86387539312175        0.68687035916821       -1.61030056133706
H           -3.77836555916060        1.34537884625778       -0.21612273445497
H           -1.90023560469231        2.79302597112825        0.39121060078839
H           -2.26626289382923        3.06597431258449       -1.33601606013584
H            1.98786783436945        4.43047594567988        4.74346970959942
H            0.33036914149106        5.04893008659554        4.96248155431818
H            0.88228190730718        3.56765690640182        6.86581892264343
H            1.33953578395089        2.27042066126097        5.75168801860411
H           -1.44579813970883        3.50513892878717        6.04194941380161
H           -0.97419234950171        1.86924348365103        6.53296185536304
H           -5.03828118380305       -3.38489195662608       -0.39058157549990
H           -3.71179390816556       -1.47965193532226       -1.18371120424869
H           -2.37197341010580       -0.61569249932915        2.77340377590187
