151
 energy: -221.327587390604 gnorm: 0.009319260909 xtb: 6.7.1 (edcfbbe)
C           -8.15314856292457       -4.14421433379181        2.88729730719767
N           -7.07493362758851       -5.69476899883545        4.97809740411957
O           -6.66546352904312       -5.89623805831930        2.01708886894697
C           -6.73489683193114       -4.70663939351117        2.80269997000738
N           -3.48162090119253       -4.63145053321428        2.54133085197579
O           -3.08330995489892        0.85510912245585        4.21063029317011
C           -6.76551842899114       -5.69003498027031        0.62498386956640
N           -0.76363981009233        3.35419658435824        3.17746108040006
O            2.19800792985518       -1.88538881267776       -5.62549434856867
C           -6.21705985773707       -5.07816046940116        4.18059749367129
N            0.41462995884975        3.92986307590965        3.66322984571188
O            3.69835258733076        1.81464910789079       -1.64877834359805
C           -6.69368798297476       -6.04338280831837        6.19441037020350
N            2.75884000795636        3.43758656729013        0.89377115187748
O            2.20599462302641        5.36199331086002       -0.14842089677521
C           -5.42884414539694       -5.78469231657534        6.69684365387008
N            3.75392773873992        4.00019613266420       -2.17615026942968
O            0.35442971881486        1.95555430245630       -0.70850954843318
C           -4.52216006361767       -5.14617415758964        5.86974248771740
N            2.25946225274271        0.38168981882449       -5.75604948817641
O            2.59860819082039        4.38046439903721        3.39186554877702
C           -4.90257991482212       -4.78698277203133        4.57813726367124
N            5.96667879389989       -0.57008416773822       -9.51791398518940
O           -3.37269338413259        2.59241227226370        2.82164791365224
C           -3.95934361217303       -4.07641784701705        3.70912168658985
N           -0.73863581126187       -0.23877719117636        0.63929642250479
C           -3.55404801594392       -6.02662328328664        2.18618622083476
C           -2.37122240867021       -6.80629553067917        2.75956079245503
C           -3.48031611817094       -2.79553819299419        3.86607568724789
C           -3.68946762488779       -1.88082483314239        5.03170437840868
C           -4.76055747698276       -0.77803986516162        4.87160113290537
C           -4.94319566555512       -0.08174506671755        6.22271494072662
C           -6.08666515960469       -1.38539435573038        4.41757816353824
C           -4.33628452410546        0.26446147907691        3.82958801457325
C           -2.70956069413463        1.97727922244251        3.62770038827742
C           -1.34954855127435        2.42554133268495        4.13795979941709
C            1.56039795328826        3.88619782230900        2.96575002073013
C            1.49931569436007        3.24148436912673        1.57741573842132
C            2.98556609468043        4.43229621258444        0.03389891667182
C            4.25474765124229        4.25348791052116       -0.81713174932649
C            5.23940593337855        5.41496237399644       -0.66572498587321
C            6.48459103015864        5.18138322527250       -1.51871157506120
C            5.62522014129443        5.52179870886726        0.80924035217740
C            3.38329955306442        2.73398194605085       -2.41165223871657
C            2.63770343458725        2.34825628874211       -3.70248296354428
C            1.83680629746483        1.06394145464260       -3.46455100182181
C            1.21984127663981        0.55972583654727       -4.76736776335157
C            2.74102968375164       -0.85034693377742       -6.01817477313006
C            3.94006582082728       -0.88372448151374       -6.81336496336670
C            5.00238066019260       -1.05122211623334       -7.35850740163450
C            6.22914961862143       -1.05952886352429       -8.15310565194198
C            5.13565093908196       -1.45780464448895      -10.31251995784662
C            5.43904823168566        0.78027973136956       -9.57669738601781
C            7.26123346425514       -0.15010068997748       -7.46198920137813
C            6.79730837560514       -2.48557229591550       -8.19416255148437
C            2.94892817408932        1.60716246271461       -6.08417710090859
C            3.64750507057920        2.16424718127239       -4.84090874406245
C            3.36610116930956        5.15447319725460       -2.96017085818099
C            1.18940429969430        1.74356007571574        1.60006193632702
C            1.14785185044724        1.16877928420566        0.17350818340099
C            0.63874280103199       -0.27685319625801        0.19892364835115
C           -1.54943606789278        0.48099180901120       -0.32528698150656
C           -1.03206530448859        1.91492899084409       -0.41190827577196
C            0.33609835431683        4.58608857057830        4.96196190521306
C           -0.17338979360857        3.59285093498522        6.00388946782731
C           -1.51803843088082        3.03260457102126        5.54631330051992
C           -2.67125163278633       -2.53764380670781        2.72163311272147
C           -2.68568854900154       -3.70869235747828        1.92312060306006
C           -1.98908746173844       -3.76987523223273        0.72016317823614
C           -1.32690511329874       -2.63966399124582        0.29021196972572
C           -1.32468725971789       -1.46867095752078        1.06074526847669
C           -1.95683161616658       -1.42805799738329        2.28464666966006
F            1.70996144280143        3.32851611009046       -4.07106467980972
H           -8.49768053632950       -3.82936720788146        1.90591345440885
H           -8.81620075537515       -4.90937306273310        3.27851699893364
H           -8.16378906455241       -3.28702295688452        3.55314103358638
H           -6.06347999364369       -3.95588027270452        2.35549748098793
H           -6.02332734835337       -4.95781497588402        0.28450555614050
H           -6.56473084836662       -6.65574414405870        0.16739035143977
H           -7.76310070504831       -5.35129407880261        0.33319836320905
H           -7.44372128068514       -6.54661684536471        6.78786792161910
H           -5.16327481822959       -6.07561779955450        7.69973271068381
H           -3.51830134000961       -4.93177200803715        6.20609491045416
H           -4.49333511828976       -6.43958027861213        2.55996544066260
H           -3.55668900093454       -6.10225202590950        1.09593180256097
H           -2.43123539222114       -7.84545527496617        2.45166412868054
H           -1.43370339918477       -6.38696657543102        2.40292510010020
H           -2.38115907876584       -6.76301967945083        3.84603198175359
H           -3.97606429379312       -2.48512454804483        5.89466822578555
H           -2.73881724979976       -1.39262614752889        5.25557287321778
H           -3.99944818911105        0.33721905419279        6.56142902015645
H           -5.66984136333615        0.72261036170910        6.13963102100589
H           -5.29755976342367       -0.78850247741708        6.96800718752223
H           -6.86090027813902       -0.62456905293483        4.36539748219102
H           -5.97834454331288       -1.83685281391219        3.43563564630062
H           -6.40095108017504       -2.15569662184702        5.11741376969508
H           -5.08698097192610        1.05802740137318        3.73977596125697
H           -4.21066106891648       -0.19993581612756        2.84643647695207
H           -0.69381894450517        1.55078694367940        4.20838488041258
H           -1.45083934518872        4.07588869722348        2.93923495493112
H            0.73867272564875        3.77908466471296        0.99846935075087
H            3.46229896614075        2.72910971229742        1.03559606894265
H            4.76324433207819        3.33315538648583       -0.51405937016314
H            4.74608142919570        6.34765864394061       -0.95165339126435
H            7.17348168713722        6.01327639936085       -1.40659303085935
H            6.98791547680587        4.27187001342015       -1.19842419946184
H            6.23486729735309        5.07892199526094       -2.57073567086783
H            6.32836820457123        6.34483905079870        0.95123345812879
H            4.74493440306180        5.70925052776722        1.42996621976893
H            6.09827572918405        4.60025319074540        1.15027199980261
H            2.50895924800468        0.31212438309958       -3.04943638185643
H            1.06100196893070        1.27852065219929       -2.72724268221225
H            0.49037243107021        1.28082434729040       -5.14420905239470
H            0.73120548866473       -0.40401043236614       -4.61048081056948
H            4.97935764269623       -0.99508335213975      -11.28515984627858
H            5.64259916857282       -2.40463978545640      -10.47197691226386
H            4.15295800202719       -1.64591238705788       -9.85573731082283
H            4.42405785626365        0.86278722688285       -9.16221470776935
H            6.09502941584517        1.46514762705184       -9.04971977813788
H            5.40658589566137        1.08655559737985      -10.62180692791221
H            6.83073219582948        0.80743049631776       -7.18374478752437
H            7.61877505162641       -0.62951934835800       -6.55554105663031
H            8.09660186016536        0.01052728469614       -8.13602417290784
H            7.63094879480421       -2.51916804994752       -8.88948939598280
H            7.14899412455214       -2.76298933825042       -7.20371378631121
H            6.04400735272734       -3.20893581260167       -8.49306482278778
H            3.67668603853056        1.41929633602478       -6.87389778861064
H            2.20553587554907        2.32839038688681       -6.43831939453255
H            4.12464246955688        3.11424294470408       -5.07826661920553
H            4.40856313864924        1.46345119129686       -4.49602461076851
H            3.20288762502202        4.88797162412071       -3.99699914186520
H            2.45281866673488        5.59360219803125       -2.55151558464697
H            4.16117504811136        5.89288632068240       -2.91671324859903
H            1.96233318554014        1.22033804936196        2.16371098555387
H            0.22502038564677        1.57231508991751        2.06923892558784
H            2.14434699743799        1.19684952546145       -0.27824232887318
H            1.22400425559180       -0.86709771242489        0.90440487661722
H            0.75366661376596       -0.71043095988106       -0.81034069295920
H           -1.50753858600629        0.00867744789223       -1.32438480335922
H           -2.58656373103757        0.49094333740536        0.01554941949980
H           -1.23991315664440        2.43253920273957        0.53268941819356
H           -1.51716499610846        2.45394394385193       -1.22858675297663
H            1.33445289680830        4.95115502172594        5.20048830431025
H           -0.35084351642473        5.43703640000107        4.88336938668504
H           -0.27755789535067        4.09471678347751        6.96471766391698
H            0.54874030974477        2.78118226562034        6.11005903842419
H           -2.26508623692916        3.83129687823023        5.51200377368801
H           -1.86886667449109        2.25795438863605        6.22859415000912
H           -1.97961125475455       -4.66706381094577        0.11996965047480
H           -0.80528739692823       -2.65312622688379       -0.65606649408669
H           -1.89031396983924       -0.52796737707234        2.86865854189633
