151
 energy: -221.322786327210 gnorm: 0.007953043449 xtb: 6.7.1 (edcfbbe)
C           -9.15062954286892       -3.84622865684912        4.71759063660177
N           -7.41896763244656       -5.51253230896422        6.19766685887604
O           -8.08291173546648       -5.56884014964818        3.33269463957452
C           -7.85766216034535       -4.39288667640180        4.11311499195083
N           -4.78954259497633       -4.16488512513664        2.82101080151329
O           -3.34369183317422        1.07690846243172        4.77969614856603
C           -8.63953042420862       -5.33647827803595        2.05870073086495
N           -0.75169670726410        3.12234696972232        3.41991575176135
O            6.93402944230216       -2.27859046199930       -6.08659397244631
C           -6.89281874210990       -4.80118912337432        5.21091935428718
N            0.57624466015368        3.42617549861315        3.74137756723463
O            4.88984837517376        0.83478694305652       -1.43887996092826
C           -6.64747961460795       -5.92017859999438        7.18916461509254
N            2.42267872694025        2.68589100819257        0.68006996353380
O            1.94136229690340        4.56324714091492       -0.46954344920378
C           -5.29523368424566       -5.62588513952594        7.26700686443898
N            3.52820655867150        2.45124638317550       -2.20854165127326
O           -0.47135827686255        1.99773168529810       -0.70222829377982
C           -4.73718555466177       -4.88344281968343        6.24329331146556
N            5.07524587060524       -1.00763595833750       -5.81457888506713
O            2.75926692378576        3.35284783777454        3.21830575841418
C           -5.53331175167320       -4.46193726060947        5.17739762687103
N            7.96065395100175        0.33111361057024      -10.53021656901173
O           -3.47643076775065        2.83876499792784        3.39897911078141
C           -4.90673760798964       -3.68009615375731        4.10651826925030
N           -1.85478866116535       -0.02770588248265        0.63796152026023
C           -5.04731307185473       -5.52128329670720        2.40502534276471
C           -3.80614575270185       -6.39603433868733        2.57198300009472
C           -4.30669623057905       -2.44495410303452        4.21073753194472
C           -4.19429865138519       -1.59986619740730        5.43968926862433
C           -5.14246920957894       -0.38028158047481        5.52129405043330
C           -5.09321714318761        0.17601352201326        6.94711424527287
C           -6.57371047733043       -0.79619204092718        5.18184741138819
C           -4.71784998985724        0.72369863126661        4.54519537779396
C           -2.84341663610478        2.10968746565937        4.13105176457239
C           -1.36665513239483        2.29191115936474        4.45175525440787
C            1.58972704201709        3.15878478743316        2.90155918850589
C            1.22778624422790        2.68536706379569        1.49250999698008
C            2.67302241203851        3.60882063203817       -0.25081992058989
C            3.92107791312864        3.30991932752351       -1.08855437492684
C            4.62514436732337        4.59437622309244       -1.55491928416888
C            5.81357695030722        4.25395027527713       -2.45011694704133
C            5.08693767710507        5.36864215989254       -0.32226183290144
C            4.12501379692969        1.25622771989647       -2.30746705360430
C            3.91722730159204        0.39901080697276       -3.57823730280937
C            4.63067831486129       -0.94569665319967       -3.41210642464305
C            4.57856945040658       -1.77546746188529       -4.69646280887532
C            6.25749684163454       -1.29603502193866       -6.38976916434647
C            6.67327231038358       -0.38925694803258       -7.42974206381380
C            7.12823277258697        0.28176088533821       -8.31983058402032
C            7.57297880869244        1.17149794526010       -9.39135995551174
C            8.57078499284577        1.02992190662291      -11.64143113598805
C            6.90843415201197       -0.54781467150609      -11.00054392685546
C            6.42790703949290        2.16552821408572       -9.68522167279440
C            8.79332287011745        1.94091419168539       -8.85597585917202
C            4.33141376332031        0.20459265743716       -6.05015546063865
C            4.43230462199655        1.11992464567156       -4.82706773713177
C            2.52931679484512        2.99752033020331       -3.10521158244084
C            0.58324851463047        1.30016190031992        1.41773965519116
C            0.21921132499011        0.95084798068314       -0.03773202474271
C           -0.62973914723012       -0.32549931242146       -0.07061359512877
C           -2.61219331609721        0.98714224060512       -0.07014376783057
C           -1.75910067515591        2.25237033818128       -0.16234715076762
C            0.80736234186486        4.05126164889509        5.03584710683534
C            0.24862405488726        3.16578739504508        6.14496736616992
C           -1.22704879788960        2.88976806872104        5.86628982300240
C           -3.76930870501178       -2.15636483716359        2.92218373972814
C           -4.08497968036463       -3.25494373315667        2.08433736637574
C           -3.68238642380652       -3.29029373651909        0.75313073805998
C           -2.96210377518434       -2.22371457835300        0.26190240919112
C           -2.61919824435450       -1.14245882057713        1.08602530589912
C           -3.00641618804440       -1.11177526462487        2.40845427486213
F            2.54522837009484        0.13068512706097       -3.73479629179737
H           -9.57997924609441       -4.60165853630934        5.36766817626934
H           -8.93388063962173       -2.95425575552459        5.29658371954496
H           -9.86187174200534       -3.59148254464251        3.93772612580731
H           -7.38575810659930       -3.62814077703796        3.47530303543562
H           -7.96520907149857       -4.72678119111023        1.44452934300328
H           -8.76231775555981       -6.31722168201489        1.60521398936528
H           -9.61151277941922       -4.84148019714366        2.11922734590839
H           -7.14514028194806       -6.50273550778996        7.95107126346322
H           -4.69985751861967       -5.96993657263583        8.09690826786499
H           -3.68551392310159       -4.63584445214835        6.24631713457838
H           -5.86918618718900       -5.92693587327595        2.99714282817902
H           -5.35271437447956       -5.50531659023711        1.35589377555343
H           -4.02009080762571       -7.40559042544313        2.23789147843934
H           -2.98068697965796       -5.99836581404293        1.98873273128676
H           -3.50694529163645       -6.43070646261448        3.61710597782525
H           -4.40165115326481       -2.22842271593185        6.30775629615521
H           -3.16861764762331       -1.23431887553127        5.51973698648187
H           -5.47006480067064       -0.55839806328352        7.65318192603758
H           -4.07219552661425        0.42896035415722        7.21880333787211
H           -5.70399347187210        1.07216163338189        7.02608722479429
H           -6.64401353528027       -1.11499631116226        4.14465923915381
H           -6.87653615833786       -1.62596187791481        5.81790104954673
H           -7.25964360163383        0.03215455190210        5.33795305173157
H           -5.33585765978995        1.61829538602834        4.67162383882111
H           -4.81285246896239        0.38776382833265        3.50826923541540
H           -0.87913239647478        1.31066451463466        4.43081841566310
H           -1.29983263627936        3.97729395627332        3.30592479350006
H            0.55824077743505        3.43237938910421        1.05136940336705
H            3.12651248317763        1.99817693619540        0.90053530932737
H            4.62532241734705        2.72265722991752       -0.49046780845959
H            3.90545859595127        5.20968506981936       -2.10186365669668
H            6.35879404865614        5.15825939629503       -2.70487350593543
H            6.48919897664210        3.57655551555924       -1.93055139128154
H            5.49259270041157        3.77494475010395       -3.37104177662600
H            5.64103053614029        6.25552740567256       -0.62347198551636
H            4.23070317650768        5.68170970969645        0.27541022044740
H            5.73159793229266        4.74790796479435        0.30016267490700
H            5.66553018735909       -0.74561796721407       -3.13419455024659
H            4.16500868220557       -1.49755364725179       -2.59553864862937
H            3.54711730738752       -2.07344096430174       -4.90582717358750
H            5.20070998364124       -2.66566037486107       -4.59315397798896
H            9.43403239570386        1.59525793350564      -11.30459931908880
H            8.91375925969406        0.28098519740001      -12.35474654015232
H            7.87669636631741        1.70461339011148      -12.16536913583974
H            6.15090058982155       -0.02878835969900      -11.60620640763169
H            7.36118363687875       -1.32458546661755      -11.61542561329777
H            6.42001859217044       -1.02244441670609      -10.15320489736239
H            6.71085684642448        2.82665752906850      -10.50072706071261
H            5.51687780712300        1.63700031966256       -9.95550812920723
H            6.23320332027131        2.76708450837042       -8.80181180526701
H            9.01027524606230        2.79929561818626       -9.48582857526407
H            8.58697474968666        2.29640903475308       -7.84981220628181
H            9.65692392094221        1.28379533988292       -8.82330740219556
H            4.72467808556421        0.70917608208493       -6.93243491267873
H            3.28254027243180       -0.05996340348723       -6.21946111366340
H            3.86028329978345        2.02344276102711       -5.01518551251406
H            5.47535002506509        1.38451612609435       -4.64934436592621
H            1.82358789721710        3.58418832862464       -2.51938148981137
H            2.98695170379969        3.65697802204290       -3.84412500408216
H            1.97068964437635        2.21009729413109       -3.59860420849751
H            1.27861299429974        0.54898940299444        1.79207560642214
H           -0.32352296294311        1.28030003804942        2.01666639080623
H            1.12821458678189        0.81321341149323       -0.63329721169484
H           -0.11237597932747       -1.14052708731791        0.43457677055742
H           -0.79984876220158       -0.60479164815620       -1.12465658601326
H           -2.89475540775091        0.64940286038218       -1.08283443196940
H           -3.51961887612284        1.21202623343139        0.49218264730659
H           -1.67549083602126        2.69791793893654        0.83580386101254
H           -2.21369008249804        2.97514954513960       -0.84160273075084
H            1.88109571298072        4.20016846928117        5.13634866824869
H            0.30426771436578        5.02250513700488        5.04077465272408
H            0.36806506122220        3.66675379500604        7.10491350965656
H            0.80329106931658        2.22752763342060        6.17027406815670
H           -1.79680162085412        3.81954057927138        5.92220554593231
H           -1.63321961197582        2.18893876191157        6.59308782746224
H           -3.92432682517505       -4.12726193646027        0.11677556490915
H           -2.64411318970191       -2.22264296637369       -0.77030294329872
H           -2.68254199701701       -0.28791101514657        3.01901473402912
