151
 energy: -221.307856131384 gnorm: 0.003961620553 xtb: 6.7.1 (edcfbbe)
C           -7.98695744592278       -3.37192919684932        1.33574501436938
N           -8.53773870560827       -3.46480164997668        4.06724734511911
O           -6.88406455921307       -5.34453583414555        2.28841386840880
C           -6.94154461610366       -3.91974964745104        2.30641323897083
N           -4.19973134370391       -4.46618549044087        3.98209259759100
O           -3.09816818317440        1.78998734072520        3.71918225781326
C           -6.21607588459023       -5.89248767202465        1.17539794564547
N           -0.31747282940299        3.45415203471135        2.82362270437165
O            4.46468099388626       -2.05762589965645       -6.89541569138427
C           -7.25680656380062       -3.51924978334717        3.73741655768791
N            1.02599487373589        3.49738870153296        3.21315614689916
O            3.79624433963176        0.05827283649643       -2.69793457123812
C           -8.87493145650236       -3.10882960908991        5.29444890690581
N            2.35861159293264        1.66931659475643        0.47125016832800
O            2.71872515534953        3.88520918836065        0.28621729153368
C           -7.94917894600425       -2.77016278764205        6.26857037069952
N            2.71362625623866        1.99706568363954       -2.35252810272731
O            2.77098460346263       -0.99771773471745        1.32030710350749
C           -6.60791783591459       -2.82705653665281        5.93504678000026
N            2.97223655801699       -0.50601231424550       -6.16859898812655
O            3.07569982078008        2.56999921036895        3.05490128752526
C           -6.23475541817822       -3.21874457244348        4.65188481981902
N            5.92571702720645        3.03263634550639       -8.87440014958909
O           -3.19466813602530        3.91163671728558        2.99467877610907
C           -4.81751784267461       -3.27008152615761        4.27827800922567
N            0.73393156699176       -2.53188831233420        2.45232692025819
C           -4.68041429949867       -5.76446420618761        4.38317724397333
C           -4.29442859545492       -6.06667529974887        5.83071003149668
C           -3.94349792817442       -2.22165224545661        4.10977884123040
C           -4.18591610429557       -0.76364692552421        4.33517695258016
C           -4.67254411526989        0.03452401289073        3.10032943710444
C           -6.16830582150674       -0.19173139932238        2.87965356402867
C           -3.90284589258806       -0.35254716373368        1.83786785584294
C           -4.46875803312111        1.53281012944044        3.37892129424025
C           -2.59590841039113        2.98449345659246        3.49262109197356
C           -1.15034379662996        3.05643419119150        3.95777736780052
C            1.91733426274880        2.65581528577909        2.66420728598571
C            1.36281933452513        1.81554401725627        1.50898121528873
C            2.93208150682849        2.73741822726384       -0.08972633028555
C            3.72193214369794        2.37283531644111       -1.35289592043468
C            4.74264568785503        3.43882868545814       -1.79613692082650
C            4.14037385282976        4.70288290189967       -2.40311719222930
C            5.74816868406450        2.81534306496207       -2.76430379673400
C            2.81504451809905        0.77354764023355       -2.89407689531198
C            1.65291907444592        0.22595562269300       -3.77171836891678
C            1.88946509681155       -1.25540722426175       -4.11012492345224
C            2.06844004196854       -1.48654633429064       -5.61140732426872
C            4.12781011062383       -0.88118373166303       -6.74310182016021
C            4.95431409233703        0.20358353410713       -7.20618746567693
C            5.72263689308761        1.02260241533829       -7.63998790596883
C            6.67784511783550        2.01772027723951       -8.12381097163903
C            4.94160847687866        3.73471836684980       -8.07463288424152
C            6.73752349539482        3.96380570012557       -9.63002639960631
C            7.45131279315275        2.57416377180168       -6.89683739150428
C            7.63444871847848        1.26250561012818       -9.06064049454944
C            2.63739643200676        0.89127805445734       -5.96195169049796
C            1.41956736302328        1.01986712917532       -5.05660607568455
C            1.59632956748261        2.90897760071509       -2.53503960852332
C            0.87901097570410        0.44409226916915        1.98083208227375
C            2.02271402844661       -0.47958556119309        2.42384279147390
C            1.49242332596247       -1.63375704679441        3.28501950934617
C            1.57160245292162       -3.14090160315453        1.45233938959808
C            2.11206013355340       -2.00863485253614        0.57066924650099
C            1.34971342481890        4.40219894263798        4.30245308262333
C            0.48436562757335        4.08314701701881        5.52393144809938
C           -0.99280634552734        4.03645696263303        5.12988731850327
C           -2.70743170889292       -2.79846355636324        3.68425875431427
C           -2.90598298319658       -4.19780424176866        3.62001043400350
C           -1.89092522970035       -5.04336861944520        3.18987839798062
C           -0.68802233852045       -4.48426980814744        2.81837681108438
C           -0.46518742466459       -3.09647931797051        2.88499358303046
C           -1.47482784626775       -2.25735414820740        3.33256583049863
F            0.48614188203075        0.29261806913501       -2.98487838329532
H           -7.73093650494245       -3.63661361208077        0.31360783989064
H           -8.95758457991022       -3.78676975681025        1.58746627507375
H           -8.03220079129616       -2.29041795255638        1.41752788205550
H           -5.94391228658231       -3.52983405513686        2.04088299173760
H           -5.20880806895826       -5.47678228852596        1.08627732494742
H           -6.15771058282350       -6.96192815994074        1.35881976215977
H           -6.75930413095624       -5.71401455277725        0.24701605035154
H           -9.93752485453537       -3.08982527842206        5.49415209010260
H           -8.26846349594136       -2.47542038408873        7.25499472120705
H           -5.84410645273949       -2.58065937585044        6.65835516914565
H           -5.76550927060299       -5.79241413076137        4.26547960263717
H           -4.24474355120012       -6.51028581810325        3.71528875345354
H           -3.21664262860659       -5.98782965399146        5.95568712576634
H           -4.77445191024987       -5.36017640534530        6.50386891933831
H           -4.60814246743389       -7.07096412622762        6.09832773690965
H           -4.92409067369859       -0.63534976649900        5.12940137724218
H           -3.24570173865623       -0.32312537619673        4.66989757593983
H           -6.36247501490826       -1.24852515685605        2.73199658931192
H           -6.74406538064380        0.14269571717244        3.73954955008928
H           -6.51266074673332        0.35173868350780        2.00317415829578
H           -2.84491601428071       -0.13391866362626        1.95050305065301
H           -4.01462530879758       -1.41506690611746        1.63947657884611
H           -4.28221577837360        0.20169415877597        0.98198893293384
H           -5.08655210825841        1.85582899715562        4.22225345508293
H           -4.73034589276056        2.13510322911799        2.50376489869557
H           -0.83711704689198        2.05401592183027        4.26572679445948
H           -0.61501834971430        4.37459738531840        2.49616101336422
H            0.51539165029800        2.37309249857826        1.09296685822892
H            2.71823719847542        0.73473928385574        0.31437931421234
H            4.29013795244133        1.45897103349488       -1.14352485183243
H            5.26780566426958        3.72473572384014       -0.87725289676212
H            4.92863502046453        5.43890674943094       -2.54072387392858
H            3.69831870903316        4.49674244109372       -3.37290087956170
H            3.39513109073883        5.12730727851751       -1.73753211120159
H            6.45082770402734        3.56843570946133       -3.11261038691633
H            6.30637508872559        2.01514728124931       -2.28211095350831
H            5.23450652317239        2.39169678084941       -3.62624588629256
H            2.78439743173794       -1.59142512450809       -3.58273751782358
H            1.03883202056074       -1.83454001493665       -3.75197519518283
H            1.10963189456167       -1.43432032554903       -6.13534960982329
H            2.50736646123720       -2.46968911501668       -5.78961330988966
H            4.25031050944995        4.23829830707682       -8.74987080653334
H            4.38613833001170        3.01656260108820       -7.47607699447406
H            5.38063835648301        4.48970736247506       -7.40560634344723
H            7.39970764866428        4.57981890694883       -9.00261067580035
H            7.33909481501300        3.43060217319131      -10.36025958051730
H            6.06578462617696        4.63081306559823      -10.16808624466625
H            6.96238995028175        2.29426423533910       -5.96636446751324
H            8.46463730248131        2.18507598815500       -6.87936106420799
H            7.50186664813758        3.65911124177584       -6.94158515218289
H            8.51252812924989        1.86103816442936       -9.28577658469990
H            7.95446684417002        0.34266552067806       -8.57606323882302
H            7.12041932093970        1.00554156726327       -9.98291317229654
H            3.49431273838096        1.39802216655656       -5.50143907415857
H            2.43532063533531        1.37029699493607       -6.92618549605631
H            0.52937924430724        0.61784377432905       -5.54100501068605
H            1.23700189813940        2.06962587243730       -4.85220662582526
H            1.69801020971647        3.46862501998901       -3.46379562057253
H            0.64627355512439        2.38295125058236       -2.52065901136386
H            1.59248703913253        3.62698966639081       -1.72121085269944
H            0.19926831194245        0.59319926126472        2.81753335197234
H            0.31998539250151       -0.03136492029152        1.17477019931599
H            2.76017082332456        0.10151979308901        2.98916849826132
H            0.87415837131825       -1.25314665914713        4.09537468804046
H            2.35576531294501       -2.16334929949742        3.72365599822735
H            2.41511727315392       -3.68962974175931        1.90309259414013
H            0.98696909817423       -3.81951685987301        0.83258324409845
H            1.28233593511891       -1.57587634484166       -0.00401434914562
H            2.86792056331896       -2.37687281182994       -0.12553192807559
H            2.41094148568181        4.28240800065387        4.51982707141953
H            1.16568172675692        5.42655853245603        3.96126613263263
H            0.64713584865229        4.84236185964575        6.28702663425574
H            0.78221350312616        3.11525807475798        5.93031333859402
H           -1.33758236919206        5.02224613489833        4.80873326943329
H           -1.60352348961229        3.71594631573941        5.97329654146876
H           -2.03040728327528       -6.11272698374981        3.14076043656669
H            0.10938463839352       -5.12909667804489        2.48176962900697
H           -1.31389698563353       -1.19262549909666        3.38326304216394
