151
 energy: -221.323226381487 gnorm: 0.009222898152 xtb: 6.7.1 (edcfbbe)
C           -8.99843944942972       -3.56208704558830        4.13936741487584
N           -7.64875407591986       -5.55324863311624        5.64477734753153
O           -8.11260660654687       -5.43552072261959        2.79402239403798
C           -7.77415746879018       -4.30391760975916        3.60085919293452
N           -4.66433979852090       -4.27599662124844        2.56246311913879
O           -2.99062518723336        0.65609174696860        5.04580331736140
C           -8.71781999714385       -5.12394193685069        1.55648145383421
N           -0.53535406219683        2.91472651520665        3.83836177567712
O            6.58639351544162       -2.05491916957601       -5.65094766580297
C           -6.95542408017314       -4.86860983666744        4.74633807261242
N            0.79286580974422        3.26123600266128        4.09391421309198
O            4.95138109467572        2.24772121626322       -1.61836107181719
C           -7.02479602125503       -6.10377391736820        6.66889495982119
N            2.25270510411143        3.22613299042719        0.75562197807117
O            1.17971504012462        4.97782086835005       -0.18478458198443
C           -5.65561540602099       -6.00241353400537        6.86254093030257
N            3.08595159933494        3.37348043200929       -2.19553161595714
O           -0.41116907809537        2.14428094103273       -0.49237740834214
C           -4.92328331652195       -5.28909973094414        5.93262267797661
N            5.16323336128836       -0.30117105177210       -5.45774429017762
O            2.88071674040723        3.56653492022943        3.31273721241996
C           -5.56669439324931       -4.70095233609686        4.84250479766667
N            7.93891091843155       -1.03208158288768      -10.37039693042202
O           -3.23480039111483        2.62722928318645        4.00825260199808
C           -4.77389416619557       -3.91883908796808        3.88936055812928
N           -1.60499965714091       -0.03866879321082        0.78919543689291
C           -5.03820121522458       -5.54973519881025        1.99852772162579
C           -3.89151184853204       -6.55475945404866        2.09908070871954
C           -4.05899883103384       -2.76694537014903        4.13656714325302
C           -3.87995107652634       -2.08031507006925        5.45393367445196
C           -4.78053060812777       -0.85125402844875        5.71692462528025
C           -4.63544299939583       -0.44480979529932        7.18567335493809
C           -6.24052241231554       -1.19161568100278        5.41958967189275
C           -4.37581789108775        0.33303776369470        4.83204843201204
C           -2.54720798097570        1.80007871412188        4.56725304057214
C           -1.05948516455951        1.97808672602623        4.82686303881621
C            1.71082858121271        3.25343007221781        3.11368462225033
C            1.21473867449818        2.90351982686202        1.70831495424315
C            2.14388510214176        4.22728864899600       -0.12362593582970
C            3.32316425736515        4.31587102925083       -1.10400633873114
C            3.53129426156007        5.76228419779919       -1.58254747702464
C            4.47230240034600        5.82257255445229       -2.78150491024905
C            4.09473621847290        6.56904584714955       -0.41407412409358
C            3.96506559805172        2.37537267575478       -2.35036870453807
C            3.85003558790859        1.39735698103305       -3.53301863591268
C            4.41503712388653        0.02924091932266       -3.14347182199652
C            4.44146842347883       -0.89737232700431       -4.35679871694580
C            6.17474939330087       -0.96252017573772       -6.04729817447393
C            6.72427021077442       -0.36989641255963       -7.23855337324882
C            7.23145563480339       -0.14281752009934       -8.30860176575719
C            7.78427446678274        0.21758779011856       -9.61279351892703
C            8.57508280488311       -0.90019796739037      -11.66465559694766
C            6.72270528940629       -1.81235940621728      -10.48377678678939
C            6.84622656363034        1.25400426858165      -10.26781457523028
C            9.16072980536406        0.85601707189198       -9.36118300349210
C            4.65711158406700        0.97949544482865       -5.88682041991193
C            4.64609777779092        1.96600234065207       -4.71533368503471
C            1.85069956796816        3.54001783911224       -2.93396468415888
C            0.79673880329326        1.43755040814405        1.54988897261323
C            0.37888481944304        1.12573017865958        0.09949589401891
C           -0.37651598044209       -0.21123440334905        0.04406565443168
C           -2.44773443465674        0.95167274184001        0.14284959363020
C           -1.69192066322749        2.27865150436591        0.10360549006099
C            1.11404470227114        3.74560998367923        5.43010582236793
C            0.64117516408729        2.74309277625176        6.47944779495961
C           -0.84577182699363        2.46210834249848        6.27436045201345
C           -3.47791438371344       -2.38716519396679        2.89068356069656
C           -3.86590819150288       -3.36102412811490        1.93760208212926
C           -3.45957299172075       -3.28328031476498        0.60907343740137
C           -2.69866933414170       -2.20149923919807        0.22529293326409
C           -2.31847988150284       -1.22033837435274        1.15271961447739
C           -2.67529547270199       -1.32475230702977        2.47990307421976
F            2.52537279205925        1.19602170010962       -3.92977040655629
H           -9.61868438809589       -4.26291089287586        4.68927010965016
H           -8.67461921098919       -2.76887559149270        4.80581806115920
H           -9.57142487177359       -3.12269109374482        3.32841036885339
H           -7.15779169338780       -3.61270231797748        3.00290603611929
H           -9.69813243507468       -4.64916644130641        1.68606076049986
H           -8.07017840158600       -4.46599629026951        0.95550324289415
H           -8.84499343899124       -6.07983029168765        1.04891561660966
H           -7.65509348579860       -6.64042175298978        7.36261229184274
H           -5.18109905047571       -6.46985464849799        7.71037836663885
H           -3.85188351825752       -5.19145331534940        6.02838065932977
H           -5.91515374864440       -5.92970718523765        2.52397399405543
H           -5.30300408445573       -5.39359866818918        0.95084616647592
H           -3.00948883462075       -6.17337835579932        1.58956139412741
H           -3.63875147243003       -6.73658459567066        3.14084292256081
H           -4.18601702585273       -7.49376998359696        1.64208060265411
H           -4.08343472067806       -2.79970575363978        6.24803900765571
H           -2.84051777610427       -1.75876103279799        5.53917309349034
H           -5.22404626256218        0.44584019947641        7.39131259281622
H           -4.98593651271173       -1.24335451236596        7.83522251998756
H           -3.59496206442564       -0.23532697205364        7.42051414460243
H           -6.54258058159333       -2.05645355502657        6.00563715541936
H           -6.88813596210765       -0.35620427551840        5.67206093503824
H           -6.37138406614419       -1.42697022280602        4.36599061336250
H           -4.97781256471403        1.21734302914616        5.06359230371301
H           -4.50955205385510        0.09421702894030        3.77289709614832
H           -0.55265372454261        1.01628607006982        4.69174316860332
H           -1.13609117099801        3.74067841313390        3.81506189724235
H            0.37309184987024        3.56250424417406        1.47015749263739
H            3.12034388329611        2.71690519517809        0.83305338678178
H            4.23611648739532        3.97562068343987       -0.60511925285248
H            2.55806353109593        6.18486267615093       -1.85213011057651
H            5.38945265538394        5.27771363006014       -2.56540849942149
H            4.01197261421341        5.39027517752873       -3.66501065355926
H            4.72435114032529        6.85665185353009       -2.99569019346249
H            5.08723287052292        6.21038250941066       -0.15027423433735
H            4.16254714238176        7.61983179080006       -0.67862307633137
H            3.45046480821061        6.47442812023771        0.45721021267173
H            5.41553183659000        0.17718885273122       -2.73896198511917
H            3.78985260326669       -0.41203863309224       -2.36618405744762
H            3.41294474564997       -1.09835279359831       -4.67952289803135
H            4.92981648005427       -1.84096121206095       -4.10761456096834
H            8.75201883806786       -1.90478296031724      -12.04851574459284
H            7.95921936002474       -0.35928580806139      -12.39887247482161
H            9.53605349675508       -0.40371358848617      -11.56515653752978
H            5.99485053243281       -1.38046555061757      -11.18733690538995
H            6.98895260430628       -2.80780609154960      -10.83796725815989
H            6.25630319536723       -1.91039862069483       -9.50560759272717
H            6.81999237683577        2.15402336462028       -9.66109291043649
H            7.21250720197505        1.51232859916940      -11.25784335411823
H            5.83619622480495        0.86093415784527      -10.35193488237609
H            9.86964768288951        0.09160818127179       -9.05744410136352
H            9.52268407426441        1.35335605310376      -10.25634961149722
H            9.08001667308956        1.59379621592402       -8.56767447126139
H            5.28752276359954        1.36100477415349       -6.69163229909713
H            3.63395690438364        0.85250898478049       -6.26004748819757
H            4.21330734455421        2.91060768486108       -5.04146135177129
H            5.66169466856116        2.14524046399666       -4.36458491498329
H            1.13321326805528        2.75805394648930       -2.67970446405690
H            1.41074111048084        4.49112173480483       -2.65077721025066
H            2.02593844964810        3.53121401265237       -4.00785661424366
H            1.63272321926288        0.78863999186663        1.81116512764423
H           -0.04296028471721        1.22893470915690        2.21051306581643
H            1.26715996882901        1.07840449705921       -0.54081804486514
H            0.21547044855974       -1.00119879198680        0.50431823331178
H           -0.55287046922782       -0.46421900577270       -1.01691260101346
H           -2.72695781660661        0.64629231102085       -0.88384546685214
H           -3.35973442387647        1.07777954225751        0.73202796248961
H           -1.60491256297576        2.66340359673869        1.12648743521521
H           -2.21591200102687        3.00947503865675       -0.51328925332049
H            2.19319109825688        3.89268357627393        5.46637886537725
H            0.61566547992696        4.71057247861559        5.58116087681105
H            0.81567610766388        3.15538854506632        7.47188318909971
H            1.21001720265215        1.81800048769114        6.38198412204119
H           -1.42397645270425        3.37622617228959        6.43891425861441
H           -1.19680462552370        1.70084209379446        6.97143491537316
H           -3.74236145111163       -4.03751876588382       -0.10982917582312
H           -2.39295772617082       -2.10197207662412       -0.80672131720128
H           -2.32645445717347       -0.57460832697684        3.16777270427157
