151
 energy: -221.323137074151 gnorm: 0.005421736558 xtb: 6.7.1 (edcfbbe)
C           -8.90784497147699       -3.96482401848623        3.61682110852773
N           -7.47782183759863       -5.71881053125009        5.33033706800320
O           -7.62474374956694       -5.67467623675172        2.39855960016207
C           -7.53721640814764       -4.52455109936120        3.24077619737854
N           -4.34463510645497       -4.24607609286070        2.49818837109171
O           -3.27485186115572        0.92949746376684        4.87886714085054
C           -8.03957522016399       -5.41332978816650        1.07652230940805
N           -0.62279117242003        3.10553619606118        3.84541284265441
O            7.33678977083510       -1.83488624889288       -5.54365365396078
C           -6.78590808377127       -4.97808712462062        4.47767729749456
N            0.68603336762185        3.39728840064190        4.24955375678840
O            5.41335057117853        2.08760542837335       -1.18731386845409
C           -6.89307662244478       -6.16358416831480        6.42824910090531
N            2.53075115152761        3.28796047273238        1.08713501970065
O            1.60049589169794        5.00289040841814       -0.04281207038574
C           -5.57478479931407       -5.88203487578679        6.75056732697797
N            3.46163396861277        3.02061237477702       -1.79958815825282
O           -0.25936665066029        2.41706474141073       -0.29498984935226
C           -4.84420919277761       -5.10916249967509        5.86649663688011
N            5.47143601177843       -0.63371794513835       -5.07104255230260
O            2.87026243724260        3.57550507671027        3.74788592136063
C           -5.44055868892883       -4.64509321220798        4.69464820695165
N            6.83963634832315       -0.87961320327826      -10.61281499940775
O           -3.30286721747408        2.76290274059465        3.59065995704682
C           -4.65590061621600       -3.81898103679733        3.77176981074016
N           -1.45673212784928        0.15793202657451        0.84138095346876
C           -4.49505033014417       -5.59252844141146        2.00452093441449
C           -3.28872189861649       -6.45531585607428        2.37277736741779
C           -4.12315030528184       -2.57037199553072        4.00474290421570
C           -4.18471624868966       -1.79233641525254        5.28131601715387
C           -5.14580592809707       -0.58086217817702        5.32157026899225
C           -5.28811988614162       -0.13115858832501        6.77890821299939
C           -6.51472547988578       -0.97486117587295        4.76673902295384
C           -4.62058326098186        0.59812913355772        4.49176915653694
C           -2.72410180885870        1.99495083449942        4.32717173584640
C           -1.26898815166706        2.15662320822584        4.74825684469763
C            1.71885779740419        3.34534467630633        3.39026723787089
C            1.38324669953446        3.03601389037463        1.93348505754597
C            2.51269973644627        4.20049197402101        0.10890433792119
C            3.70332890573623        4.11425981914644       -0.85586047294686
C            3.94524604530750        5.45725809843439       -1.56663693716942
C            4.91592630892236        5.30316971223458       -2.73518852744509
C            4.50250927143086        6.44812150170651       -0.54681307709975
C            4.41231507015727        2.08262660583109       -1.90756865730568
C            4.29382286384790        0.96366788159047       -2.96683749055300
C            5.33134186594687       -0.12413983263027       -2.67680822649784
C            5.31145114144050       -1.20624006799712       -3.75363488280131
C            6.46530833455123       -1.03228543702374       -5.88466209374198
C            6.42913358821434       -0.49811818924503       -7.22331321012637
C            6.46301427096616       -0.18957929533116       -8.38687753680313
C            6.40333638002052        0.24858677755147       -9.78031519996435
C            8.19471081433905       -1.31698128907749      -10.34372761641302
C            6.61833765127601       -0.72823392806508      -12.03565102487951
C            4.93298445780129        0.59156352097297      -10.06909659957425
C            7.26717577776802        1.52101351868490       -9.91934127848370
C            4.47384807152586        0.35219324436500       -5.40470004958207
C            4.49312879704907        1.49929006933310       -4.38766846633576
C            2.25813576919041        3.13112323659171       -2.60169970509857
C            0.90579122239464        1.59592997957868        1.71689388382076
C            0.52459149987234        1.36400621563151        0.24331259731767
C           -0.22701455613575        0.03508797812754        0.09152075394860
C           -2.29837707144133        1.19800856020175        0.27688348356294
C           -1.53699289394734        2.52243304094168        0.31108947709286
C            0.85707943101843        3.85931989887003        5.61974415656851
C            0.26955296150481        2.83763031835215        6.58827676134251
C           -1.19369439373948        2.58765330193177        6.22536804332074
C           -3.43682751136268       -2.20588153088675        2.80957193544699
C           -3.58690238760853       -3.28065396254590        1.89726551288316
C           -3.01037370307365       -3.24004297648522        0.63242259523481
C           -2.30960125885277       -2.10981811891533        0.26907307799775
C           -2.15165974639786       -1.03996406383868        1.16077973736683
C           -2.68648622153303       -1.09810712902315        2.43117692857592
F            3.02435286103813        0.36989029337280       -2.87437577580635
H           -8.78323008980131       -3.14337841167790        4.31552526617877
H           -9.42638016713566       -3.59796176743776        2.73552951977691
H           -9.49424911119178       -4.74868755265866        4.08642417250013
H           -6.95116348851593       -3.75140076794929        2.71870286469515
H           -7.87948123754146       -6.33846129347257        0.52868515292123
H           -9.09730982696746       -5.14317679840435        1.02747902084198
H           -7.44067028956436       -4.61162273308943        0.63155784844677
H           -7.51743763477349       -6.76731479513118        7.07221753499904
H           -5.13442558178844       -6.25843096278137        7.65935374881495
H           -3.80881541814212       -4.87230236300588        6.06425655189028
H           -5.40486469824348       -6.02798944491767        2.42155839948630
H           -4.60287971778868       -5.54590845303271        0.91840017999544
H           -3.22151290005279       -6.56862684512801        3.45221509996748
H           -3.38891974334932       -7.43883311239350        1.92447444066623
H           -2.37085759883356       -5.99518794686168        2.01370830965602
H           -4.49876791252422       -2.47305954292836        6.07439890254882
H           -3.18149937161574       -1.43238508723828        5.51780521978371
H           -5.70759466863321       -0.93201904089876        7.38200324426202
H           -4.31794422082902        0.14048405245334        7.18624855846910
H           -5.94731895766755        0.73079537678945        6.84871961839883
H           -6.91138963274480       -1.81525734117180        5.33076549645963
H           -7.21320436813132       -0.14505853772055        4.84013582782996
H           -6.43493142756722       -1.26911248814902        3.72321970079224
H           -5.25098269320166        1.48157540399091        4.63453387723435
H           -4.61873018095368        0.35161061925901        3.42633328978508
H           -0.76678432204301        1.18883060008469        4.63564962051917
H           -1.18455622624490        3.95688315047262        3.79194126003290
H            0.61141636085280        3.73931632176780        1.60317365768908
H            3.35155746838406        2.72442792219000        1.24370543600952
H            4.60421351923280        3.83984467741919       -0.29720857506828
H            2.98227934428930        5.83224696292092       -1.92730916835619
H            5.82136958278566        4.79612836271765       -2.40668171508421
H            4.47846307343170        4.73149998919945       -3.54887574280255
H            5.18631265676286        6.28338633458068       -3.11716032024346
H            3.82058329699602        6.55401668078503        0.29356311775009
H            5.46441671463962        6.10300452877010       -0.17294102819483
H            4.63739369394514        7.42339326904349       -1.00543418451626
H            6.31086112076803        0.34992188250701       -2.62489297508382
H            5.12139063272702       -0.57110859977983       -1.70521569306795
H            4.35426435530990       -1.73883122168168       -3.71897868140754
H            6.12419408918806       -1.91647596976156       -3.59263452073810
H            8.95887224890625       -0.65374821427590      -10.77639456350617
H            8.35241974231711       -1.38460348789642       -9.26851707819092
H            8.32563693814367       -2.31057065508291      -10.77243233835358
H            6.94471768317000       -1.64689794531849      -12.52157261422707
H            5.55912185605060       -0.59944504433923      -12.23970169297328
H            7.17840295288939        0.10757902208630      -12.48327135779710
H            4.83891667705508        1.11248267484292      -11.01729599266797
H            4.34094036587254       -0.31865133487965      -10.09194419029918
H            4.55196664639224        1.23841491061720       -9.28321675220812
H            8.28118609830162        1.33981960316303       -9.57166231577541
H            7.29821070953106        1.83527077449121      -10.95955572348710
H            6.83644528884771        2.32187066601665       -9.32543004367697
H            4.67093315928738        0.73705759452932       -6.40574626902577
H            3.48646689155470       -0.12303453108130       -5.39047074850738
H            3.70569435714111        2.20376099693643       -4.64409017005891
H            5.45585665203549        2.01072170145767       -4.41639347378583
H            2.45558366508788        3.65025389419627       -3.54031773180435
H            1.82662919612434        2.15668993673199       -2.80660377591304
H            1.52209487095825        3.70473590371383       -2.04177592981761
H            1.69948446398643        0.89998198649201        1.98771980694956
H            0.03308500690343        1.40285545952234        2.33585437828119
H            1.42443108990002        1.35260475738672       -0.37971945168066
H            0.36262204470037       -0.78392581511309        0.50438107542411
H           -0.39413588396167       -0.14630573884207       -0.98501533559980
H           -2.58704592484073        0.95999887064046       -0.76276285978738
H           -3.20243113252514        1.29453532881677        0.88062938510816
H           -1.44902794107733        2.85359286245983        1.35237060204009
H           -2.06403315833321        3.28651419003141       -0.26200213004468
H            1.92393213590316        4.00913616130001        5.78034752716712
H            0.33884644156319        4.81937383732971        5.72740778410088
H            0.34954178229464        3.21557629230725        7.60614227659030
H            0.83285918071774        1.90626314926916        6.51756919404238
H           -1.77269436266396        3.50347573728149        6.36572808537098
H           -1.62114790625577        1.80640781826409        6.85184289980174
H           -3.10873518281035       -4.06308655256334       -0.05851893936346
H           -1.87004349443884       -2.04712303066852       -0.71523482331921
H           -2.48825732680824       -0.28463090479877        3.10437626457698
