151
 energy: -221.323948861396 gnorm: 0.009551348678 xtb: 6.7.1 (edcfbbe)
C           -8.13900482492855       -4.78346472359919        3.68493135552575
N           -6.54327746464095       -5.91283220581589        5.72725933199147
O           -6.61635690988399       -6.52293961423414        2.85247239135533
C           -6.69646778478830       -5.21764206167811        3.42834445445636
N           -3.46580426337912       -4.70426666672688        2.68043281542269
O           -3.51326199041314        0.98566340693519        3.66186785345596
C           -7.01651880397934       -6.60436678532314        1.50362320792280
N           -1.20520312270041        3.30840072219821        2.24750762337970
O            1.33001162028629        0.70625720454798       -6.41398108363065
C           -5.92544867593512       -5.29211364544796        4.73244885139686
N           -0.19122742712073        4.13013882505573        2.74848978415804
O            4.66572737311736        2.28852480555557       -2.17179187818458
C           -5.94165015936250       -6.02919243104442        6.89713652147803
N            2.75116256755272        3.22576166668293        0.78970364685199
O            2.33892682420713        4.98526612736762       -0.54567867054009
C           -4.68125362004847       -5.51338820493418        7.15492201899890
N            4.69318164366786        4.51320827605746       -1.81078054939019
O            0.70283695544586        1.43727037471734       -1.06808690547735
C           -4.02841248178194       -4.86266864993801        6.12463859750908
N            3.04502787068422        2.19986356039278       -6.32698183205912
O            1.98410187872444        4.67460827922776        2.84127798508873
C           -4.64137231697005       -4.74897431363234        4.87575125080472
N            5.31059268338357       -1.88496887415033       -9.19527558547116
O           -3.62783039326550        2.07751792998241        1.70461887740804
C           -3.91221628698604       -4.05312750495659        3.80990887124514
N           -0.71454740270634       -0.51486045236719        0.34215267059499
C           -3.45859800781723       -6.13367255179561        2.48296360964333
C           -2.30443149898816       -6.78893558172801        3.24100456521865
C           -3.50391914191290       -2.73811188597619        3.79887059852099
C           -3.78298865395108       -1.69467480840464        4.83185574380256
C           -4.96660275802811       -0.74764097638955        4.52017930861811
C           -5.23190394390274        0.12094560964042        5.75331144430537
C           -6.22125210937720       -1.55122024121690        4.18326423447282
C           -4.63936451312104        0.15938986818309        3.32875934356208
C           -3.10830512305922        1.87920700087564        2.78135350955035
C           -1.94048602817874        2.67709578844048        3.33731275268241
C            1.08310101628447        4.00010864028726        2.35111679493453
C            1.36598737781322        3.06324071828821        1.17078067040084
C            3.13316231288828        4.21143513314391       -0.02642583186645
C            4.62931883539005        4.22079707038958       -0.37548189230268
C            5.46930434008952        5.13549756570979        0.52646206798316
C            6.92783945962122        5.12739279324399        0.07095545984384
C            5.36717451907108        4.65442527147803        1.97468124857947
C            4.56777678321694        3.44109085308072       -2.60363870057859
C            4.21613023404951        3.56831871948001       -4.09346765850584
C            2.70249678890143        3.32067837520192       -4.19456440656089
C            2.26168527265760        3.21351784274971       -5.65609658644429
C            2.52901169967600        0.97403180764018       -6.55258396394597
C            3.47583144208975       -0.01261886270145       -7.00108046323720
C            4.19009321919431       -0.94450650718247       -7.26989827585398
C            5.15482468292217       -1.94323760692067       -7.73254580646466
C            4.10295462064591       -2.23227659866207       -9.92484897122853
C            5.84658295775739       -0.62773519655016       -9.68859140693521
C            6.50073549072666       -1.66014790365546       -7.04160584135865
C            4.68248749634513       -3.34357544009736       -7.31053299451946
C            4.46000173639046        2.49019232878263       -6.34426888373438
C            5.00125376611331        2.54308418533733       -4.91572118533529
C            4.48552730006467        5.88003322211126       -2.24371496821209
C            1.06492049211852        1.58277231882044        1.37399344825936
C            1.28130959998985        0.79932757099181        0.06295032016140
C            0.72484031530797       -0.62250648162767        0.22133142003372
C           -1.27646475075580        0.02447104741289       -0.88067837447684
C           -0.71707536350064        1.43237442681632       -1.05924741514964
C           -0.58809982047860        5.16646564198960        3.69218086540715
C           -1.32736826830856        4.54464987138134        4.87279232129601
C           -2.48795574573538        3.70145826865022        4.35100352203202
C           -2.74331176873906       -2.56847188151329        2.60574009084609
C           -2.74019339597133       -3.81776507996727        1.93443890289835
C           -2.08120505273640       -3.98093909451882        0.71983870285321
C           -1.42302591831258       -2.89562454644805        0.18426522350978
C           -1.38727567562462       -1.66440653889017        0.85504991988192
C           -2.03212053835975       -1.50166317134239        2.06217284354728
F            4.50035743619149        4.82056223999640       -4.63835244708026
H           -8.14522513624774       -3.81879253184154        4.18183211034501
H           -8.68707556763135       -4.69742506367190        2.75178917662082
H           -8.61850852958200       -5.51904467915910        4.32314157791938
H           -6.20327929889705       -4.50390552473522        2.74908713615933
H           -8.06722876569549       -6.34643168988706        1.37330784163621
H           -6.40379312821154       -5.95015972741902        0.87603619401578
H           -6.86553096734828       -7.64042647583685        1.21147794390657
H           -6.50443121258105       -6.55643209460535        7.65326347017165
H           -4.22395253232379       -5.62010582506101        8.12491861352877
H           -3.03907721072239       -4.45242107406979        6.26561763512868
H           -4.40850024543114       -6.55457505290610        2.81894920796435
H           -3.35738570317444       -6.32006299084876        1.41206819930438
H           -1.38099026030676       -6.24267961223441        3.06536459204219
H           -2.50674913506878       -6.79528805152143        4.30943704664531
H           -2.17390501812961       -7.81227753621662        2.90794606671706
H           -4.00274459577856       -2.18873546114208        5.77950684745334
H           -2.88902136416792       -1.08241198119147        4.96148270302523
H           -5.54134576530849       -0.49949471037883        6.59015905113961
H           -4.33341191756136        0.66244930071216        6.03461738906115
H           -6.02132062840607        0.84001854582211        5.54789863980607
H           -6.43087197253683       -2.25721853252232        4.98246260892171
H           -7.07728842656915       -0.89170823032717        4.06593039007576
H           -6.08612889036062       -2.10703660252428        3.25892081497840
H           -5.48921801458483        0.80674499551064        3.08475234297665
H           -4.39049149646200       -0.42612221400042        2.43835395208003
H           -1.25779236110732        1.99164340455781        3.85180601693430
H           -1.85195443152045        3.83924368128976        1.66171383964590
H            0.77380242225827        3.44565458037663        0.32924969258230
H            3.44001958795413        2.68437340416820        1.28733635686465
H            5.00929333448903        3.19911179610094       -0.27295428232900
H            5.07912233096034        6.15675572618570        0.48895442143817
H            7.02333426827763        5.47593409028159       -0.95351683291298
H            7.51671760361552        5.77589659550566        0.71451870100125
H            7.33328295299405        4.12055393038760        0.13028730128314
H            6.02040609891604        5.25233208754665        2.60253123133152
H            4.35182613041339        4.75493953484638        2.35068774337055
H            5.67808997397194        3.61613053362707        2.05477531120162
H            2.48209684749456        2.38915282355162       -3.67118770060457
H            2.16143773031014        4.12306982228354       -3.69381987714931
H            2.41297557445837        4.16973792673244       -6.16404873248169
H            1.21042343365131        2.92895604524192       -5.71293029674606
H            3.80948900579401       -3.25431415337889       -9.70155348919916
H            3.25970717207093       -1.56115001023518       -9.70092700810082
H            4.31904405121329       -2.17102687498507      -10.99002299962960
H            5.96268294318231       -0.71322769640894      -10.76654808233774
H            5.19196808440628        0.23036385919945       -9.47542271193833
H            6.82793981522171       -0.44402186387900       -9.26177849542841
H            6.41849154225366       -1.88894981574431       -5.98262677221682
H            7.26832543032284       -2.28907542237132       -7.48321614971698
H            6.78714527317253       -0.61669950297530       -7.13394351504663
H            5.29551531948449       -4.08854304993634       -7.80966071397891
H            4.78873466454162       -3.45643899590763       -6.23579145095899
H            3.63705570730670       -3.50647257857675       -7.56128973710329
H            4.98415644745456        1.72721011651919       -6.91957922597243
H            4.60030906746260        3.46341188371122       -6.82409088604810
H            6.05385588790049        2.82681849301235       -4.92397106022103
H            4.90183869107658        1.57263080741913       -4.43018303757865
H            3.51753893302936        5.99993387777251       -2.73116260056466
H            4.49435301297508        6.52482959472195       -1.37284110235764
H            5.27673336152048        6.18933128657684       -2.92495855145085
H            1.72319738747509        1.16971444570296        2.13723349702782
H            0.03017995856530        1.45630305797639        1.68348304067047
H            2.34700806407159        0.76241271595055       -0.18765489522048
H            1.12424240188115       -1.07875381405726        1.12829762698901
H            1.03113296165102       -1.22934866174706       -0.64975911224642
H           -1.02429165094074       -0.58936907952832       -1.76476897952673
H           -2.36165793598932        0.07587516562513       -0.78282234735289
H           -1.09867288796269        2.06786752344233       -0.25225434009745
H           -1.01227251904509        1.85037314407100       -2.02352062889005
H            0.31967831394407        5.67927847769588        4.00574206053162
H           -1.23887500765467        5.87575856482101        3.16816408839666
H           -1.69577209596545        5.33568617455001        5.52516343062820
H           -0.63949714676662        3.91713834659905        5.44029876125033
H           -3.21915367462113        4.34089039356219        3.85112923862163
H           -2.98436839131174        3.17677625710115        5.16529306098701
H           -2.08029749754440       -4.92776090433749        0.20109837680762
H           -0.91717655279270       -2.99481808647768       -0.76607245882096
H           -1.95837045832400       -0.55208510751025        2.56759826161718
