151
 energy: -221.314099361079 gnorm: 0.006838458001 xtb: 6.7.1 (edcfbbe)
C           -8.66118535732780       -3.92923925151133        4.44747328413306
N           -6.92922158404331       -5.95846524227290        5.41657553763373
O           -7.83687880815310       -5.40306827221252        2.65503957367450
C           -7.47064495207097       -4.42867933642289        3.63136318110380
N           -4.57330411090648       -4.08913709243465        2.06079111395778
O           -2.66067052577478        0.47199668948869        5.00039266868677
C           -8.59482893906459       -4.90433782144880        1.57390420031004
N           -0.15612517809560        2.68251687030110        3.80344888745242
O            3.64352496171532       -1.99376974120803       -5.79837705247678
C           -6.44826705055250       -5.11154456628893        4.51816285607827
N            1.24090062489584        2.76680395724206        3.87439485660863
O            4.98207312638335        3.08167025582701       -1.94903599339569
C           -6.09187728308139       -6.60910614822298        6.20466887794415
N            2.14949079720821        3.34978507563715        0.41153142228347
O            1.74250377602849        5.52672758699815        0.83635002583304
C           -4.71593650273053       -6.45280124972218        6.14443228949641
N            2.98930334290231        4.12654971550183       -2.09914033846007
O           -0.86257006287652        3.01456305664911       -0.32056271164516
C           -4.20581054425370       -5.56568849651722        5.21433980984749
N            4.02289376114006        0.23354973926681       -5.59478029825853
O            3.22132641218697        2.79669430323974        2.80915170798060
C           -5.07502246395570       -4.87226309121635        4.37279683203282
N            7.36140492030621       -1.32385517782443       -9.72911757542391
O           -2.85301383775396        2.65149744380955        4.49812019432189
C           -4.52786692973203       -3.89794469185078        3.42276341864198
N           -2.03576859844059        0.51854475520730        0.43947915185501
C           -4.91449040293146       -5.32012265458575        1.39416382809493
C           -3.68937753117999       -6.21907902927573        1.23113445802053
C           -3.91187228431827       -2.70310863717471        3.72386317623902
C           -3.56728685378827       -2.21782433173653        5.09748827724464
C           -4.40851824532929       -1.06311244948492        5.68702993136012
C           -4.07642026941185       -0.94522227355766        7.17775752612889
C           -5.89865677313801       -1.34660807280983        5.50710594350853
C           -4.08302031709209        0.27239808877141        5.00556012379040
C           -2.18215068323505        1.66332903009081        4.70062289024206
C           -0.66137194571530        1.63514633335281        4.68663096502499
C            1.99413583540242        2.77671345388443        2.76344151027755
C            1.25027013661447        2.85400347962920        1.43041532068329
C            2.33002463668179        4.66131664152888        0.20130665712633
C            3.31593937262622        4.94846768335234       -0.93648287656469
C            3.49347685212958        6.44985507235197       -1.25387912867447
C            2.21884096522954        7.21573429404976       -1.60726220128056
C            4.53507617028522        6.61735379498049       -2.35999201994956
C            3.92944083864369        3.28849411942599       -2.55602922116404
C            3.69488115124384        2.51991034383803       -3.86899886165198
C            2.93897184492070        1.20941206031638       -3.62197875522800
C            2.75326556205333        0.46583865442011       -4.94350370859455
C            4.34438316120732       -1.00215411526866       -6.02046977873511
C            5.55194264688752       -1.12123736314471       -6.79822779508928
C            6.44954966498388       -1.43384210956972       -7.53880394581164
C            7.61525251851182       -1.77300582131879       -8.35329299830005
C            8.37893309343168       -1.68373798055903      -10.69473359275775
C            7.03170372276371        0.08218457476989       -9.84414554442820
C            8.85741757153577       -1.13898051305855       -7.69087441086221
C            7.72995870443786       -3.30635607101474       -8.31144442230259
C            4.80986038227022        1.42105019665867       -5.83923980688518
C            5.03426174113416        2.19961181711488       -4.54093799387838
C            1.66663198527916        4.29626507568410       -2.66775196386834
C            0.64636159712342        1.53588283427699        0.94806235502629
C           -0.15287761695185        1.78245369329292       -0.35564991016663
C           -1.10712296846527        0.62477900282152       -0.65528127249189
C           -2.46597995671401        1.76354701225650        1.04366076331985
C           -2.22457545548985        2.90277498334125        0.05946775231200
C            1.83207856988811        2.93266573847517        5.19483194469460
C            1.36433788482389        1.81844160759589        6.12607970890134
C           -0.16150522687596        1.78338648619600        6.13672654088172
C           -3.54747861409640       -2.12016174192055        2.47314193648477
C           -3.94255722927572       -3.03058218849894        1.46311410149676
C           -3.64504836457115       -2.79360202731621        0.12586561120600
C           -2.99671431525185       -1.62526565049598       -0.20571124380377
C           -2.64388655421742       -0.68050283476959        0.77658591861444
C           -2.89930111323859       -0.94305586066540        2.11259370252446
F            2.96488886919530        3.31477020117438       -4.76133753264357
H           -9.34209100345993       -3.36130158340421        3.82081872510490
H           -9.18013446013185       -4.77931867878741        4.87870894537139
H           -8.30458917656011       -3.28733674251188        5.24675630786118
H           -6.99342144501794       -3.57910975493898        3.11597909468514
H           -9.61481669493017       -4.65349714627963        1.87580948624501
H           -8.11484955262249       -4.01915816255364        1.14057425378639
H           -8.62217879733500       -5.70578940296442        0.83811359249468
H           -6.55320464282569       -7.28237955599420        6.91410760335491
H           -4.06693950778213       -7.00695961176842        6.80292861588219
H           -3.14073969934005       -5.41024343857037        5.12168056326699
H           -5.68451461746804       -5.83510326775140        1.97279146282099
H           -5.32963884944989       -5.07242183384339        0.41379941436276
H           -2.91447098115879       -5.70176693523249        0.66979051631468
H           -3.28974820833927       -6.48907932437740        2.20603094071426
H           -3.96265432841024       -7.12709098521741        0.70258404812987
H           -3.66806802791571       -3.06235015380543        5.78154350145794
H           -2.52129100204719       -1.90487893422118        5.09791807160396
H           -4.34269588475984       -1.86086102476450        7.69886525212234
H           -3.01286508367849       -0.76602056345534        7.31360732029155
H           -4.62711310849800       -0.12259219160507        7.62783430969588
H           -6.14811636529149       -1.42068823595695        4.45159672977166
H           -6.15234069097410       -2.28913206668603        5.98578183384263
H           -6.49693073794273       -0.55580249333862        5.95205469598472
H           -4.55454985698205        1.10918852967127        5.52991035067491
H           -4.43332277492564        0.27306293182900        3.96923069052643
H           -0.32825868256110        0.67010160090425        4.28934375814396
H           -0.58519106806192        3.57477257746077        4.06085872001841
H            0.45514648105822        3.60008022878994        1.53483789197057
H            2.83970816171759        2.70510156693570        0.06212870939945
H            4.29450970626798        4.58606982090117       -0.58999570930448
H            3.88725878502933        6.88159002511129       -0.32653104080106
H            1.87411042297139        6.98491568153095       -2.60948474059478
H            1.43146411388961        6.99744502804161       -0.89228658141392
H            2.42738450497472        8.28187928942642       -1.56162552577739
H            4.76350494845509        7.67022501975222       -2.49980207528367
H            5.45373217023392        6.09066111818729       -2.11062101688422
H            4.15841177038613        6.22145982832737       -3.30134658457463
H            3.52812046962702        0.61331539088391       -2.92452040773219
H            1.95962999159329        1.39444843700311       -3.18219143000225
H            2.11843708552488        1.06448882899198       -5.60759022592163
H            2.28275198251259       -0.50548757955805       -4.77783791865975
H            9.32598900507580       -1.14115017223546      -10.55245768719562
H            8.57123542200361       -2.75152403013846      -10.66365132847018
H            7.99677902287863       -1.43813378581821      -11.68496625578206
H            6.26250750253315        0.33714009878928       -9.11842670527048
H            7.89821156728302        0.74514028553156       -9.69783249796661
H            6.63688200829392        0.25795916438993      -10.84450123564555
H            8.96847748267710       -1.52575967993769       -6.68211179874793
H            9.74888613959184       -1.38819222118213       -8.26027333980614
H            8.75705905175782       -0.05812347115087       -7.63800894887773
H            6.93104911981355       -3.74825617217363       -8.89927489854747
H            8.69007865328796       -3.63653950987314       -8.69526849928604
H            7.63573827375717       -3.64774325199874       -7.28424971591421
H            5.76874334575256        1.13024438022806       -6.27014497549907
H            4.27732214973072        2.06309787886176       -6.55261760714379
H            5.56155146881667        3.12888222368059       -4.76066862864052
H            5.63546480026011        1.62618195037781       -3.83554276171204
H            1.00472127614421        4.67100908756471       -1.89077590459824
H            1.67950795146012        4.99424000940476       -3.50401178590533
H            1.26995876907802        3.34954797241963       -3.02237957154647
H            1.44054368418543        0.81697133070066        0.74465661082415
H            0.00314730600858        1.13009872577587        1.72342860477978
H            0.56168885235408        1.89690130524616       -1.17774357310493
H           -0.54855270700753       -0.30930017499623       -0.73822499378531
H           -1.60079563136625        0.82340820589478       -1.62081157232922
H           -3.53413694819580        1.71017594541718        1.27998766969473
H           -1.92565375265249        1.98849091566851        1.97538785855236
H           -2.49182015441198        3.85976777722008        0.51215055522111
H           -2.84170262662146        2.75324069844722       -0.83731168803301
H            2.91376142165103        2.92381386117496        5.06277106029896
H            1.52662600243283        3.90856224110702        5.58945331345723
H            1.74733188910877        2.00100272929796        7.12882613916616
H            1.75373246040905        0.86255376953001        5.77296927059253
H           -0.55576678827958        2.71187176013906        6.55735007359434
H           -0.52738690555119        0.94836571008288        6.73253383538273
H           -3.91573170850716       -3.50045160917890       -0.64383314254369
H           -2.76409479904175       -1.42179205726614       -1.23925170575407
H           -2.55888970237567       -0.24536194468948        2.85488580344271
