151
 energy: -221.323520888961 gnorm: 0.009286564864 xtb: 6.7.1 (edcfbbe)
C           -9.14915397065113       -1.91110786069992        4.34618200046229
N           -8.22556798273933       -3.30694781518824        6.62443295239587
O           -8.83307794295425       -4.31897356352307        3.94184121983834
C           -8.17626260531979       -3.08411043742708        4.23072661907062
N           -5.21510280899373       -4.38964157442464        3.41370373950660
O           -2.03910592076218        0.80190727315706        5.19909443090033
C           -9.36985852633386       -4.42674417650621        2.64058296351320
N            0.36680133870685        2.30494164286124        3.21217876051482
O            4.56523895137477       -0.86625975019649       -7.84541864320397
C           -7.45500131477196       -3.31887548772882        5.54608710950611
N            1.70588775438928        2.12051201563049        2.85283590962486
O            3.13754984069685        0.95413189823883       -4.36014068727108
C           -7.69024895731867       -3.52727272790681        7.81136336086409
N            1.45283182741796        1.65539894629877       -0.71617486603364
O            1.98058028693431        3.82071074995719       -0.43644347017699
C           -6.34096361820031       -3.78264609655315        7.99666038139916
N            2.17854190330266        2.80281141158414       -3.50600405218062
O            1.21312813825269       -1.21343779896783       -0.81939630438793
C           -5.52882556364009       -3.79422751974376        6.87861173451459
N            3.47098485499397        1.10364649459175       -7.55667569700545
O            3.20430880232338        1.53053508458741        1.28498631493717
C           -6.07456346763030       -3.55731607648385        5.61553545737989
N            8.65376545209281        2.48325868725248       -6.05389182084486
O           -1.79827047345114        3.01561548242431        4.88743460042270
C           -5.16107508237839       -3.50517671312940        4.46953980189734
N           -0.89644244433148       -2.51619898866746        0.50877941695924
C           -5.98202075032952       -5.60947391907390        3.37339973001127
C           -5.21431020333537       -6.77259061099486        4.00001392222191
C           -4.11937290378729       -2.62102305451453        4.29766002736154
C           -3.66996378147496       -1.52253981798139        5.20400579185290
C           -4.26966180780162       -0.12457273845778        4.91984533371437
C           -5.69158208589262       -0.04020583568974        5.47331980119466
C           -4.28250145833543        0.20411262405180        3.42752017939573
C           -3.39933099434991        0.90876003280536        5.65487513127037
C           -1.38088910625085        1.87810276122635        4.83991625798865
C            0.02917970570903        1.52002628133115        4.39491748210279
C            2.03932139323700        1.72962200709714        1.61683698680359
C            0.88232607505973        1.57980938438340        0.61499685645895
C            2.11243138301212        2.77092304129193       -1.05407568251744
C            2.99353049459221        2.66363486223317       -2.30232059584419
C            4.13040930225208        3.69957510284046       -2.21552240680025
C            4.80930718196886        3.90258387151274       -3.56454559726477
C            5.14013934609492        3.21678317715414       -1.17614479225594
C            2.32391157672671        1.87358300220759       -4.45835523289903
C            1.49388264509698        1.97335336766564       -5.75525634010571
C            1.36713193247357        0.59212899028501       -6.42041251518651
C            2.16387765249062        0.51291358277902       -7.72465181048386
C            4.57958413969926        0.34447551644959       -7.60831367146327
C            5.81930829719813        1.06101320205496       -7.45294164460695
C            6.92106942822450        1.55020060885142       -7.47856599015110
C            8.25131622000737        2.16014724381744       -7.43178366410435
C            7.94668587792927        3.61662965401324       -5.48411623657579
C            8.58485238530247        1.35071926256680       -5.14687159495008
C            9.25740391946805        1.17196264897731       -8.04692477518852
C            8.22989700967240        3.42510640033333       -8.30426902340956
C            3.51161736958005        2.49967214130454       -7.16494103534081
C            2.13324101822036        2.98059709832684       -6.71901587432052
C            1.24177885440730        3.90881803322951       -3.51541272753821
C            0.10838622146945        0.27816265514909        0.81015674727302
C            0.96911361842077       -0.97061955780202        0.56702068568759
C            0.33419419932955       -2.21286432236418        1.20159835648578
C           -0.61380484261591       -2.87311375926444       -0.86112216512061
C            0.07989259705430       -1.68216019800501       -1.53338204382219
C            2.71005877715438        2.38118663329055        3.87338886528682
C            2.42083179101525        1.53239196173594        5.10850320620089
C            0.98731809700748        1.78240831455743        5.57151951206636
C           -3.48127833826446       -2.98296746591851        3.07400247102474
C           -4.18041319261345       -4.09961267904959        2.56244120448089
C           -3.77380198792889       -4.70416875490933        1.38013242503502
C           -2.67686645646314       -4.19004193159837        0.72289353418728
C           -1.96953111165791       -3.07453861272811        1.20946181212578
C           -2.38168378920997       -2.47284958232698        2.38970031465459
F            0.19753712468513        2.41535295724654       -5.46008699413827
H           -9.70749038545990       -1.78463616536962        3.41886877920965
H           -9.83678683782747       -2.09800434031827        5.16789666052802
H           -8.59539609365450       -0.99573443852090        4.54932414929989
H           -7.44027171230629       -2.88110682983976        3.43374806356736
H          -10.22968513982857       -3.76900176339548        2.49778145187756
H           -8.61083119601265       -4.20047356779528        1.88553439723733
H           -9.69003837284277       -5.46002962328115        2.54227506097436
H           -8.38006304792440       -3.49567533013138        8.64362233272260
H           -5.94018237327376       -3.96567969883095        8.98074223300706
H           -4.47152818466866       -3.99877744782279        6.96498291476742
H           -6.92178779275677       -5.45906520823349        3.90770191792861
H           -6.20880450312307       -5.83316907059238        2.32791478477764
H           -5.01046661289180       -6.56448920413654        5.04743988264906
H           -5.80453608012275       -7.68171812829664        3.93391436401761
H           -4.26956008752963       -6.92631691425273        3.48397852739207
H           -3.90806268367516       -1.77809164170986        6.23798123785609
H           -2.58534961202028       -1.44824716941569        5.11402089631250
H           -6.11052708116398        0.94857515000689        5.30662939867713
H           -6.31887176615662       -0.77327327802166        4.97531760150042
H           -5.70900359543401       -0.24730987942443        6.54026404769577
H           -4.72454976445753        1.18496060159214        3.26520858236929
H           -3.27453785572093        0.21229527504980        3.02268406852860
H           -4.86297433950587       -0.53392499521308        2.88309536739486
H           -3.39083987927560        0.70885958852867        6.72975103356044
H           -3.74894663610068        1.92936022831153        5.47668406898554
H            0.06509342658346        0.45895652429922        4.12651976716831
H            0.18271108075029        3.29014672951765        3.40690066091972
H            0.21490537076180        2.43658906454809        0.75612537900224
H            1.70278796329541        0.76477160695343       -1.13405767618979
H            3.43345253085613        1.66014045001904       -2.34299775122808
H            3.70511216742534        4.64831293691161       -1.87136557313077
H            5.10808641182668        2.93806669727503       -3.97490285229590
H            4.14656466938551        4.39433596568025       -4.27172060380598
H            5.69563532946315        4.51709985266273       -3.43820806297634
H            5.64036365243926        2.31610553845118       -1.52777454338641
H            5.88771848668334        3.98383404711883       -0.99190154802480
H            4.64149515565934        2.98370858187492       -0.23637539967858
H            1.73765803803855       -0.16624686687346       -5.72780223926083
H            0.31348421311557        0.39926967888211       -6.62318299413591
H            1.64359480104768        1.03159673732120       -8.53512193102522
H            2.31250661956617       -0.52972511953481       -8.01126714673523
H            8.25732865825511        3.72213576419986       -4.44460497412414
H            8.21907246053948        4.52867579220524       -6.00858700952129
H            6.85469830178732        3.49164383441312       -5.50921764548556
H            9.02638283051727        1.64718409142700       -4.19597931876481
H            7.55385343236247        1.00973072353283       -4.96225273701925
H            9.15951139405986        0.51730295925807       -5.53891031437324
H            9.06412504712232        1.07044051322781       -9.10871345433961
H           10.26068798959393        1.54995718110348       -7.89957117994985
H            9.17638044908348        0.18668015193505       -7.60273708797872
H            9.17742486421872        3.94625685839995       -8.20573071037664
H            8.08775847497186        3.13936813364230       -9.34335005048566
H            7.41738736580743        4.08910215537210       -8.02526041259039
H            4.22806665857566        2.61153444400823       -6.34487020943527
H            3.85892786026707        3.11257969749061       -8.00505420613553
H            1.46329730398578        3.09476852027566       -7.57206311311126
H            2.24132795234974        3.95459094088073       -6.24327127912174
H            0.23409361877958        3.56708642883133       -3.27689547010735
H            1.55288292743572        4.62216137892732       -2.75704764966499
H            1.21923264255723        4.40836093660671       -4.47986395151221
H           -0.27632774752429        0.26089065943470        1.82664849237163
H           -0.74374558609564        0.26739715167819        0.13243006798729
H            1.97074668739335       -0.81547180724821        0.98455532607985
H            0.15075109066974       -2.04473419540399        2.25976704135050
H            1.04645123650413       -3.05006621838485        1.10166104281812
H            0.03936500838081       -3.75950644062613       -0.92258441789071
H           -1.54180512616716       -3.06985158723107       -1.39495426684055
H           -0.64474586723425       -0.86928152642533       -1.66534459548051
H            0.46687800350365       -1.96981873933625       -2.51269824058138
H            3.68020385227743        2.14455119416593        3.43712447841962
H            2.67946253456402        3.44669025911807        4.12608425178763
H            3.12339310892265        1.79101239157628        5.89884952436161
H            2.55091596228707        0.47773523160551        4.86124116430303
H            0.87103308231329        2.81920559552457        5.89666464952249
H            0.73068982854615        1.12728356796926        6.40326880760288
H           -4.28678418850567       -5.56559459360854        0.98047061054717
H           -2.34371830160664       -4.67473767713441       -0.18113734362604
H           -1.86290338880816       -1.61149902525366        2.77817941993552
