151
 energy: -221.327435162736 gnorm: 0.005121622432 xtb: 6.7.1 (edcfbbe)
C           -7.90946599196764       -4.21020140349452        2.96620127726329
N           -6.58282976190087       -5.96662343941652        4.76055654017157
O           -6.64679833756720       -5.97855183445017        1.82233803455789
C           -6.54386634017137       -4.81694363354051        2.64528906336063
N           -3.33771418776277       -4.65802944384216        2.00616255137991
O           -2.73327366875156        0.71953434616765        3.89480354112476
C           -6.97112277283207       -5.72015489385635        0.47384229903067
N           -0.60870400672548        3.28400295642427        2.73071254765361
O            0.43135091234995        0.07799260415407       -4.91619851379246
C           -5.84412251884540       -5.25988171118314        3.91717893918512
N            0.49351268700118        4.01250330972842        3.18946461759354
O            4.49816565595229        2.61148292512652       -2.63317255401980
C           -6.05121397035886       -6.38742557475298        5.89417690000840
N            2.95810310354532        3.44335917279586        0.56867901660421
O            2.23545176470160        5.39887626834988       -0.26952850555011
C           -4.74358331318180       -6.11430149571628        6.26569102955763
N            4.06721399337596        4.79998953400450       -2.32409955813792
O            1.18285980460374        1.60645707880339       -1.06532787903494
C           -3.96158659185402       -5.38411983035257        5.38944843602546
N            1.63491259051791        1.75532630018719       -5.87027183894567
O            2.65578796705510        4.57921761997901        2.94427120961759
C           -4.50162579981423       -4.94734001306370        4.17984739301080
N            5.33925467511657       -2.01364721045503       -6.59691268809575
O           -3.22809241366604        2.39684364006768        2.49213526762138
C           -3.65791369663476       -4.17917502536227        3.25867709329132
N           -0.33912831578648       -0.38445226507626        0.18812180577067
C           -3.52045937396325       -6.01635317378454        1.55730396647303
C           -2.33814467519833       -6.89274404857198        1.96630924497323
C           -3.07552111054747       -2.94791899274531        3.46418848346546
C           -3.15262565293050       -2.09585934638096        4.69118642245573
C           -4.24649189543958       -1.00333839570243        4.68571934279989
C           -4.26116337806622       -0.31772975160303        6.05530445036958
C           -5.61647097214710       -1.61957512110237        4.40898401292195
C           -3.96663460885873        0.04389878992509        3.60160248762552
C           -2.49390074341176        1.86640631703737        3.29657250742831
C           -1.20145578591112        2.48747730178037        3.79843558022605
C            1.67044752473952        3.96393971625988        2.54993463257112
C            1.70736283033372        3.16828054116842        1.23830812818689
C            3.11920953131091        4.55829666672450       -0.14944990574844
C            4.44596558611141        4.64674536334184       -0.91809247529793
C            5.38510316037666        5.72327615228928       -0.36204479483520
C            6.62334282051116        5.85752015213342       -1.24353903358542
C            5.77709644872793        5.32920362910377        1.06240544538872
C            4.01575770768173        3.67059265476800       -3.03995982322525
C            3.22482301871534        3.60308066169731       -4.35733614279592
C            1.79728828191709        3.21665612335540       -3.93786238971704
C            0.94516618084383        2.79017089630420       -5.13544084214272
C            1.38950318973796        0.45495734360030       -5.59316069985609
C            2.31312478973283       -0.48069930039080       -6.17733762497838
C            3.00004942900152       -1.38556024306461       -6.58144828312451
C            3.98654282329191       -2.34705762733956       -7.07494030804459
C            5.86134552853866       -0.75627579493818       -7.10228203743100
C            5.48006548829550       -2.06180761042110       -5.15233608604413
C            3.59594647016391       -3.75376190382108       -6.59256654714646
C            3.94928858581619       -2.33454127053059       -8.61248535160985
C            2.88335084138895        2.21657706028285       -6.43274042488384
C            3.85062944806291        2.57595811552999       -5.30433710703435
C            3.51777774509159        6.07242086193170       -2.74859858110525
C            1.50113400255190        1.66219061169055        1.39129130102970
C            1.70705089271867        0.91141843890868        0.05824504367778
C            1.10663439321285       -0.49946337859962        0.16641443829043
C           -0.80353249898282        0.20637162211523       -1.05217317734770
C           -0.23425427497601        1.61892166311426       -1.11703139988385
C            0.28233122795585        4.87667463295109        4.34131486404238
C           -0.27343779302768        4.05833987650271        5.50317676578961
C           -1.53516922490259        3.32982377653779        5.04558618519113
C           -2.35112062106605       -2.64646548862322        2.27235983098431
C           -2.53576241474340       -3.74065705739650        1.38990872351488
C           -1.97623952873640       -3.74740480196674        0.11645716597917
C           -1.24603736914186       -2.64827094037841       -0.27664955243367
C           -1.04411998074208       -1.56102629076261        0.58745903543127
C           -1.57200977471736       -1.56541678705368        1.86181987949602
F            3.18434931558380        4.81527384708455       -5.04915081475845
H           -8.53241867003173       -4.96882648729588        3.43005484072811
H           -7.78480362686797       -3.37918948149515        3.65184729743867
H           -8.38935488581121       -3.84904396485438        2.06120778101275
H           -5.91883290723915       -4.07387233484041        2.12443341152030
H           -7.98186770670935       -5.31841007623981        0.36473652453140
H           -6.25586321796350       -5.01878988974786        0.02951923690948
H           -6.90834498854559       -6.68132299909283       -0.03287705342035
H           -6.70838019616750       -6.97060493417976        6.52556509806387
H           -4.34882632443396       -6.46847966855513        7.20486552642511
H           -2.93058702676638       -5.15793024047662        5.62001235643047
H           -4.44289338203588       -6.41366381123841        1.98328752014575
H           -3.62226646709278       -6.00587377331181        0.46923152426181
H           -2.25066412195050       -6.92214950300456        3.04969760297831
H           -2.48464071636395       -7.90458888132999        1.60051985094539
H           -1.41292124699543       -6.49651538819282        1.55359091165414
H           -3.33943295119088       -2.73532193086453        5.55489280164884
H           -2.18863638818909       -1.60379704052785        4.82879418765150
H           -4.53384474084690       -1.02967962393030        6.82946271669761
H           -3.28221517354580        0.09156275225271        6.28514395291355
H           -4.98571333037935        0.49340640003309        6.06505806101509
H           -5.81771619901306       -2.41325826747426        5.12460676348270
H           -6.39831203042741       -0.87000475463951        4.49529875461097
H           -5.64939124459093       -2.04064879930830        3.40778214391243
H           -4.76701898335730        0.78968373593739        3.55949871848938
H           -3.87786163857617       -0.42292697231615        2.61666807676400
H           -0.49683431779086        1.69489941419984        4.06921296952853
H           -1.32185721452054        3.90427137530335        2.34336096237719
H            0.92143718657954        3.59265602026272        0.60157336847444
H            3.74110485158220        2.83827492117389        0.75474290645257
H            4.95648756036686        3.68094260028692       -0.85976976316487
H            4.85954117471417        6.68160662540767       -0.31649726233853
H            7.12605694168775        4.89732653308728       -1.33228425863300
H            6.36004940821759        6.20052701495351       -2.24011219407253
H            7.31433474330865        6.57124995658088       -0.80350514755628
H            6.44113480053980        6.07800099787177        1.48461379461393
H            4.89885277830404        5.25083936867880        1.70044152440067
H            6.29588356410340        4.37299380168699        1.06075877284654
H            1.87085259082589        2.38951892898254       -3.22775145201130
H            1.32827818369062        4.05645025353188       -3.42422030116655
H            0.77366896569100        3.63797868443009       -5.80321546957763
H           -0.01114779630149        2.39290425268708       -4.79095735678868
H            5.90453288323692       -0.77485727720521       -8.18681555597285
H            5.27278060566827        0.11313534405567       -6.77555210099372
H            6.87688421285785       -0.63923906083582       -6.72802619411798
H            5.25093415625601       -3.05750021336009       -4.78405253481872
H            6.51756532452365       -1.84288413028467       -4.90460832617329
H            4.84003533537974       -1.33222703140143       -4.63148572671080
H            2.71666061795869       -4.09517070037375       -7.13166340836304
H            4.41882921435013       -4.43548583456191       -6.78199959171643
H            3.35705400610178       -3.75878666980196       -5.53259824019293
H            3.02095550058542       -2.78216293314424       -8.95560165475245
H            3.99620475166718       -1.32338787805117       -9.00564274269007
H            4.78612406117111       -2.91256858157388       -8.99260174944265
H            3.30957139778966        1.43941611014748       -7.06763021292772
H            2.67481635370286        3.10166697917473       -7.03945060286056
H            4.77161281377062        2.99421443484678       -5.71176188906702
H            4.09710045926283        1.68992765603082       -4.71782771453483
H            4.09456914141070        6.47838901217604       -3.57931839876996
H            2.47408890027367        5.98010490393437       -3.04784875005364
H            3.55478463850155        6.76017619038517       -1.91135232974393
H            2.20555413153034        1.26279136398024        2.12081944232423
H            0.48456598517219        1.48237264347688        1.73518714800404
H            2.77485658770935        0.83421382776074       -0.17443453634515
H            1.43989710679405       -0.97134739619847        1.09197777909796
H            1.45707709656197       -1.10611249855296       -0.68928555118303
H           -0.47542246130854       -0.35263535197290       -1.94693734836249
H           -1.89364490633538        0.24945734668075       -1.04036424147781
H           -0.64438596031504        2.20984207543855       -0.28968410295032
H           -0.48634611714384        2.09424981167562       -2.06624717622629
H            1.24366039134180        5.33036202533836        4.58327725714098
H           -0.42577694178858        5.66426929370468        4.05880842984210
H           -0.49968431872472        4.72004749813207        6.33742017182061
H            0.47567838902094        3.33404267718580        5.82527342853113
H           -2.31089172389862        4.05411878993048        4.78421460953943
H           -1.91677552730961        2.68194607157169        5.83338506426974
H           -2.11483848938037       -4.58112808552836       -0.55471914126564
H           -0.82115865873199       -2.61937924648310       -1.26934630839169
H           -1.38421126483879       -0.72534945295913        2.50979253884456
