151
 energy: -221.320085106722 gnorm: 0.009613843052 xtb: 6.7.1 (edcfbbe)
C           -8.11584984991025       -4.39359035050306        5.95365114080199
N           -6.50509290761933       -6.57953047998471        5.16886750307401
O           -8.36057602850179       -4.93414895850139        3.57045310162030
C           -7.46615472651563       -4.45460500213805        4.57311854936510
N           -5.54767534938059       -3.49561417722189        2.13619924038795
O           -1.82007072801453       -0.15330306328373        4.99525349487745
C           -9.39516380688412       -4.04337545178869        3.21769281846756
N            0.12680955792444        2.44686420616870        3.51280715413875
O            4.86269886561376       -2.22504546710299       -5.30430746706456
C           -6.29304328842242       -5.41546193439101        4.57366905766646
N            1.45907737111220        2.61095068596895        3.11630765842482
O            4.63699898389468        3.40353408443617       -2.51216302104721
C           -5.53481231396987       -7.47518873393455        5.20728852905810
N            1.30901938047029        3.59911731128832       -0.39860032408071
O            1.39342858114310        5.80072756228239        0.09837890742571
C           -4.27511788060690       -7.24824551392040        4.67388133439666
N            2.48442685174133        3.99244739352281       -2.83216983293739
O           -2.06862758129786        3.81837593717912        0.28519482541605
C           -4.04391111606602       -6.03628012841752        4.05013829768209
N            4.57457645097919       -0.00819083567195       -5.69584202760989
O            2.96984092049865        2.98774334475979        1.50277904114324
C           -5.06723178348019       -5.09166177437226        3.97060679683093
N            9.13489585263022       -1.68506365862614       -8.50113405440807
O           -2.17816093282584        2.06242713435699        4.97789042578738
C           -4.82468009779491       -3.82965436757794        3.26455321494161
N           -3.08136585452914        1.29834864898490        0.94038263091115
C           -6.31166595212640       -4.41586163474923        1.32831200015692
C           -5.40769128015660       -5.12205825515262        0.31853029701483
C           -3.90171640893145       -2.84811217278518        3.54785870603134
C           -2.91972914217612       -2.81861628808834        4.67567040276451
C           -3.27953003683431       -1.89798057834833        5.86672927112561
C           -2.32527405853244       -2.20716915288929        7.02326526086930
C           -4.72066410357073       -2.15015218837594        6.31099545565553
C           -3.14244391340985       -0.41487948209184        5.49324800259305
C           -1.47888195714689        1.09965554185359        4.75510294749996
C           -0.05893811680932        1.18005463619353        4.21682858806166
C            1.79508608480075        2.89923000057201        1.84874782272626
C            0.67748525728285        3.20601846730678        0.84408804092785
C            1.71567129295732        4.86142791909212       -0.61565788893059
C            2.62089020063627        5.04435877037737       -1.83284160958574
C            2.54035447177415        6.47774248134217       -2.40775526128681
C            1.13718428286167        6.93123828002714       -2.80952734555321
C            3.51446870110507        6.62829126000800       -3.57322502073156
C            3.59141652811266        3.30578347578691       -3.15350789085359
C            3.58186225139297        2.34276444708685       -4.35856418934249
C            3.12828085076367        0.93340172682828       -3.96381432101103
C            3.22861376640680       -0.00084031353315       -5.17236862903317
C            5.30560491360087       -1.13768356341370       -5.69764190606500
C            6.64516475849176       -1.02018733135890       -6.20811317360829
C            7.78699612090142       -1.06421235344787       -6.59079684668533
C            9.12929663069114       -1.04693357528601       -7.17366655950264
C            8.86942756431086       -3.11352586684224       -8.46416727743836
C            8.25585898492773       -1.04077877811934       -9.46139244451091
C            9.59728630066253        0.41384356458668       -7.29135736603852
C           10.08449291977698       -1.78506981767607       -6.22106480817790
C            5.05467371062326        1.28725257928031       -6.11414202438052
C            4.99216715483628        2.28344073242194       -4.95532039287307
C            1.18096027559978        3.81475641973821       -3.44455972556191
C           -0.32614964785781        2.09107051371961        0.56058841263578
C           -1.50736687467369        2.63626328170333       -0.26516659407655
C           -2.59500239976195        1.56055042131015       -0.39578501740233
C           -3.73747584140337        2.47907084336245        1.47112672568040
C           -2.71081819806805        3.61053580153955        1.53412784032409
C            2.47575455007301        2.50489045568053        4.15318131871714
C            2.34837529765970        1.16277759883014        4.86577421273060
C            0.92329452521945        1.01140896561309        5.39222516371136
C           -4.04728089183742       -1.85909194358898        2.52917433163533
C           -5.07921769294556       -2.30184926190283        1.66606689728386
C           -5.47176979566840       -1.55386633188140        0.56078109123697
C           -4.82937776221392       -0.35874026752617        0.32294550191987
C           -3.78416200298461        0.07890625626881        1.14981469188286
C           -3.38058075197209       -0.67285133362952        2.23365305552170
F            2.73145174379385        2.83093496070885       -5.35657405785407
H           -8.53934982976174       -5.36576769829517        6.18843939571055
H           -7.36641287167421       -4.14194690769946        6.69710384764351
H           -8.89718051479788       -3.63838080100727        5.97554328591553
H           -7.11288269386270       -3.45020482121612        4.28321760004404
H          -10.12240235125814       -3.92612227675847        4.02483669004284
H           -8.98910002688537       -3.06129915350799        2.94843368580234
H           -9.88220721957880       -4.48890781584650        2.35382061828835
H           -5.78491711269504       -8.40849932535694        5.69198474350486
H           -3.50433837003566       -7.99893400219234        4.73451366880613
H           -3.08378485294914       -5.81891754469348        3.60297339191573
H           -6.79873119934791       -5.14750544888400        1.97560225741459
H           -7.08647136708505       -3.84892705787749        0.80861736247240
H           -4.63710991869600       -5.68739157206404        0.83844708723746
H           -5.99168906965054       -5.80563964099058       -0.29050583820703
H           -4.92443616977360       -4.39327959291559       -0.32877290117260
H           -2.81440681901007       -3.83095503153380        5.07130770127523
H           -1.95106727324591       -2.49990842303231        4.28626944605982
H           -2.45731115837348       -3.23310305319063        7.35703654969108
H           -1.29323063499122       -2.07301178583473        6.70989622051245
H           -2.52084545764598       -1.54531988185969        7.86351420196836
H           -5.41779713719655       -1.89209812794113        5.51771423429409
H           -4.84993325251285       -3.20280909111901        6.55563838119411
H           -4.96116149770931       -1.55749527626972        7.18932303174323
H           -3.31964566163023        0.22387621871018        6.36398680047503
H           -3.86364857197637       -0.14288380850870        4.71572668428369
H            0.09844749173694        0.37012301385796        3.49635255992311
H           -0.16392480352406        3.21689639074756        4.11549406987419
H            0.14810466453451        4.09197901440195        1.21657584453746
H            1.79811595092352        2.86345890125934       -0.88828368683024
H            3.63827207543974        4.92331024363516       -1.43017526492282
H            2.86544403491056        7.12089802037142       -1.58343522535814
H            1.15260664709283        8.00266028630883       -2.99183330088585
H            0.79633049633034        6.44219541095060       -3.71509231853487
H            0.43210190905748        6.74045126992503       -2.00505086989190
H            4.51115704654128        6.30416642680318       -3.28221938641731
H            3.19399698503621        6.02840389437451       -4.42311733720571
H            3.56285718817230        7.66706516916239       -3.88575795571472
H            3.78061234565397        0.58701189536481       -3.16195962920605
H            2.09964862350648        0.93903346843516       -3.60577924667964
H            2.54790420101739        0.34620701814013       -5.95565926859853
H            2.97362901289796       -1.02398727567169       -4.89426994009529
H            8.86321912611327       -3.48391459337944       -9.48723133780801
H            9.66112373171864       -3.62777216078697       -7.92709948251155
H            7.90138095882410       -3.35682559313979       -8.00059841626539
H            7.19480201942860       -1.09445742514083       -9.17309995267681
H            8.53719847815203        0.00018586782379       -9.58888601251778
H            8.37755262919719       -1.54124432174640      -10.42065062197062
H            8.84760423828440        1.04182538631080       -7.76411295407339
H            9.78900320065970        0.81382601186491       -6.29912237778159
H           10.51334216362972        0.44846273958848       -7.87433536588465
H            9.68304812278612       -2.74910277398378       -5.92172985734161
H           11.04286381824133       -1.92563706138957       -6.71105483773559
H           10.22867635466333       -1.19177442873696       -5.32209953531764
H            6.08061316285021        1.19248552689253       -6.46575792963795
H            4.42123630252006        1.64634741443104       -6.93262453246084
H            5.27036661046678        3.27581190725940       -5.31012073389273
H            5.68042554073179        1.99958470394639       -4.15947091636771
H            0.96966348841126        2.76005597686635       -3.60238171111224
H            0.43437677691699        4.22539156934382       -2.77122367796533
H            1.11908714606895        4.32491483550397       -4.40633038932819
H            0.15685119453244        1.29381604786344       -0.00359340837381
H           -0.71283694764516        1.68664203239928        1.49144638936049
H           -1.16127892032572        2.94777612968103       -1.25574671850163
H           -2.17840507312645        0.64273484926768       -0.81353421909011
H           -3.38340862986547        1.94212079901795       -1.07032989300518
H           -4.59080476803178        2.78520020715273        0.83902643552290
H           -4.10031797538537        2.26940551341370        2.47941653623750
H           -1.97322917484751        3.37884586681540        2.31022393593929
H           -3.19606164275120        4.55906258235663        1.76666818467252
H            3.44433322372283        2.61463154527689        3.66494197023427
H            2.33702385416428        3.33003319586512        4.86147538996230
H            3.06444802923417        1.11368833561969        5.68519815945548
H            2.57136975034072        0.36081191870934        4.16042670521558
H            0.72058302605062        1.78225603711703        6.13959223817950
H            0.78189219351889        0.03428782426978        5.85069860708334
H           -6.26183504041517       -1.88932495803019       -0.09379116685379
H           -5.12718865151169        0.24826390202448       -0.51894690176260
H           -2.54058203469347       -0.33564196059670        2.81657852400913
