151
 energy: -221.326552832058 gnorm: 0.008320178177 xtb: 6.7.1 (edcfbbe)
C           -6.32220529121058       -5.39377896711517        3.60021112353715
N           -4.33759731509740       -7.05385635234105        2.52794379373472
O           -6.42400016981130       -5.41114333243323        1.13640360714455
C           -5.64608297058746       -5.04426950133074        2.27457819200513
N           -3.67535981256560       -3.43365481975132       -0.09934521948212
O           -0.86867622924247       -0.07465010239183        3.66826260670101
C           -7.66151716811921       -4.73942390402524        1.02788965938346
N            1.08735286072916        2.76073027617949        2.74034847340141
O            4.93181768076025       -1.76846465685566       -4.14077505512806
C           -4.33444405384649       -5.78851084946291        2.13293738492518
N            2.44581226157825        3.03059786789222        2.54335086045824
O            4.64191123873235        3.35680788381982       -2.97166928428404
C           -3.23208034441060       -7.76978538202101        2.42492202601083
N            2.77326282763523        4.38845847050594       -0.83075925183139
O            1.65675313731619        6.33099301439939       -1.17096404046992
C           -2.03927492964097       -7.25552015365837        1.94003263005618
N            3.02801847803419        4.75424707496260       -3.67964058570803
O           -0.75515317782599        4.32946334799626       -0.58197970871325
C           -2.02771429033660       -5.93662027378259        1.52631659886519
N            3.26220818186805       -0.41018723560195       -4.87364687453627
O            4.15188271260593        3.59745254489724        1.21325070352616
C           -3.19368315061054       -5.17544626372500        1.60231552095690
N            2.50386987324746       -3.20446261628293        0.13992638112228
O           -1.36488014348999        2.10606239294395        3.83188813409072
C           -3.13900251616760       -3.78941285740518        1.11663889028753
N           -1.61244249221700        1.67532873046686       -0.42043222969517
C           -4.32994881565152       -4.31513654431428       -1.03414204406947
C           -3.33284036873566       -4.91709007792187       -2.02389845396411
C           -2.45412034691429       -2.73029580741059        1.66973005564409
C           -1.69664499051616       -2.74539111138296        2.95968084372329
C           -2.32154189151840       -1.97095122344112        4.14417569639619
C           -1.55702254690178       -2.33970003123463        5.41919737658082
C           -3.79618996248854       -2.34022675215188        4.30354661142720
C           -2.23102646483152       -0.45334418094220        3.93870725103143
C           -0.57780397239485        1.21022391401578        3.61445457032070
C            0.89544629569126        1.42446891645430        3.30049582700342
C            2.94354660223666        3.45967526890001        1.37117626542870
C            1.97444111090009        3.85759163434665        0.25560036039138
C            2.54743928193092        5.54687311243601       -1.46267169083594
C            3.47507679089977        5.73217473605201       -2.68006811597502
C            3.51828411809825        7.17861783056723       -3.18291962223548
C            4.34561043879367        7.30078476598974       -4.46271450291099
C            4.13297207682911        8.05498243282365       -2.09086643311413
C            3.69567962987989        3.59826354618892       -3.72978979034721
C            3.25790642210180        2.46033404068310       -4.66853397982178
C            2.29252295986942        1.57129295862037       -3.87080835751861
C            2.01279829857350        0.26570839745981       -4.61730753849858
C            3.79411709416892       -1.31311106889270       -4.01952043122833
C            2.93960735043165       -1.71569775710116       -2.93301101273738
C            2.39299043108710       -2.02378230178982       -1.90382052674274
C            1.65498004779128       -2.33278353241695       -0.68197385010501
C            3.77851148480579       -2.61055058539603        0.49453964639683
C            1.86578612356662       -3.77098733292631        1.31016202018917
C            1.28725450042585       -0.99194496566430       -0.00933746931176
C            0.36701534988738       -3.06276183033171       -1.09566236289672
C            4.11958185664063        0.33331048053407       -5.76922183946713
C            4.49079820355148        1.67660691339048       -5.13423605299857
C            1.79176167146817        5.04528515252395       -4.37761832051912
C            1.09155849114055        2.72214082723832       -0.27758912737482
C           -0.01852049069918        3.28095931080929       -1.18682508651435
C           -0.97555772884407        2.16189089408809       -1.62168695860486
C           -2.42221855987893        2.71552454942256        0.18750830568378
C           -1.52743381746891        3.90700602658109        0.53068880411759
C            3.31722259496823        2.87666813548425        3.70294813630117
C            3.18084003253019        1.47706117285418        4.29075735794243
C            1.70949315612064        1.19980467019088        4.58885117987543
C           -2.54642432682371       -1.66542623547246        0.72545911867405
C           -3.30213381286952       -2.14850484317502       -0.37321890833768
C           -3.51149311795786       -1.36582131037409       -1.50377339248576
C           -2.96724855042892       -0.09917889833524       -1.53708919275445
C           -2.21671993051103        0.39135735402734       -0.45956367155258
C           -2.00379828315994       -0.38786545895016        0.65910876436058
F            2.60706751417664        2.93359920576220       -5.80891433567137
H           -5.62320140744750       -5.22933977897989        4.41434130749277
H           -7.19870752154560       -4.77355256787965        3.76135778672850
H           -6.60830753100851       -6.44110911967181        3.58885148792675
H           -5.45408272980749       -3.95838038667534        2.22902815544170
H           -8.38333183008027       -5.10426827042961        1.76390549435223
H           -7.52967813573637       -3.65816973979004        1.14986743110543
H           -8.02949587216718       -4.95350053838477        0.02615265632369
H           -3.31612107143734       -8.79606527668068        2.75358147775839
H           -1.15297769564886       -7.86629874469379        1.88347260388156
H           -1.12808164209255       -5.48714282234596        1.13098710636758
H           -4.83762616141268       -5.10575670538294       -0.47728682038221
H           -5.08527525464909       -3.73513231635996       -1.57048845321858
H           -2.82584729460123       -4.12951652943206       -2.57776463623408
H           -2.58530329609553       -5.50650810374321       -1.49701559923629
H           -3.85414284517781       -5.56144783578502       -2.72519456412489
H           -1.59112849868833       -3.78604304408231        3.27202422413665
H           -0.69763368492559       -2.34061192195324        2.79115379949428
H           -1.64835088173715       -3.40393354483575        5.62192798211362
H           -0.50340519052563       -2.09412604287717        5.31404203815631
H           -1.95626581318573       -1.79360413452497        6.27122377578262
H           -4.35897478908064       -2.05838259730092        3.41749043333128
H           -3.89169301678125       -3.41247704157792        4.44783197585395
H           -4.22762118888050       -1.83285011440787        5.16255376629147
H           -2.57034997626846        0.08261251742225        4.83070483143255
H           -2.85144355874782       -0.13578813915922        3.09532676810707
H            1.20859084075175        0.69624520811721        2.54444144260319
H            0.66734156388810        3.44849763603499        3.36866263052169
H            1.33342086035682        4.67021781430219        0.61616468332069
H            3.60347352767789        3.85551354714885       -1.06542907294171
H            4.48758428995241        5.42985983510718       -2.39320011412090
H            2.49869977862415        7.52857091598772       -3.36386882340133
H            5.37178283266387        6.98660246809180       -4.27422815941443
H            3.94301981544738        6.68938815580534       -5.26502920091355
H            4.35816878447967        8.33743343037059       -4.78787610033059
H            5.14999457901175        7.73525084890476       -1.87530603583791
H            4.15595043117042        9.09128201756945       -2.41777559527706
H            3.54827867259262        7.99624291302181       -1.17713048616744
H            2.77681675617834        1.34554594248177       -2.91960246094389
H            1.36175617093769        2.10217017748744       -3.67715061530157
H            1.54097626879514        0.48281827685238       -5.57973051175013
H            1.35835323671920       -0.37705355104077       -4.02773541624106
H            4.23405304918241       -2.15632289415798       -0.38406323431544
H            3.69520642284564       -1.84946968365016        1.28674152865163
H            4.43861781869344       -3.40065683604725        0.85077350753285
H            0.98358107766503       -4.33382016911958        1.02054149557690
H            2.57299291387511       -4.45830009451630        1.77028862585771
H            1.58325033123051       -3.01890762462016        2.06227831429301
H            2.17400328413538       -0.38114502883117        0.14735886271789
H            0.58943923318735       -0.44349966048844       -0.63473475974790
H            0.80498121364566       -1.18725533662554        0.94439241914020
H           -0.10112329867726       -2.53236432566626       -1.92101678840673
H            0.60127718452140       -4.07336610637455       -1.41579226029569
H           -0.33967989381582       -3.08551876081988       -0.27131493975771
H            5.02325892654450       -0.25070916707748       -5.94914866221036
H            3.58953868079007        0.48997970669627       -6.71166942635944
H            5.04267712531104        2.28683376136812       -5.85032507119652
H            5.12549971630074        1.51111019078698       -4.26156254955460
H            1.16630988107017        4.15872463942777       -4.45772623123969
H            1.24586765638764        5.79736044758330       -3.80968093207151
H            1.98615220057744        5.42319176191435       -5.38332255751204
H            1.70644844679747        2.03132826236539       -0.85496731717386
H            0.62936814719206        2.18532446866914        0.54677912821621
H            0.43079937041492        3.75754924707793       -2.06424298401895
H           -0.42736068105165        1.34527476802723       -2.09301152456008
H           -1.69361265663983        2.58325064260376       -2.34740811551190
H           -3.23173255003027        3.03849443147533       -0.49187648639083
H           -2.86419087719409        2.33423221018953        1.10838609075887
H           -0.87558883782314        3.63933595469251        1.36945326857853
H           -2.12892500910328        4.77470592585253        0.80471568791212
H            4.33540650107334        3.07551309358427        3.37029012392259
H            3.02760813578658        3.62741621498315        4.44649726822167
H            3.77368177891939        1.41112349254180        5.20090966852777
H            3.56066997545064        0.74457328020910        3.57754911089517
H            1.35069224580124        1.88306358017765        5.36241414948680
H            1.57061269181975        0.17808965897331        4.93790479433215
H           -4.07784395516630       -1.73587836571990       -2.34482841433935
H           -3.11645124056514        0.51897012534051       -2.41073763769205
H           -1.38104367795320        0.01096661875164        1.43886519578089
