151
 energy: -221.325430729466 gnorm: 0.007579136012 xtb: 6.7.1 (edcfbbe)
C           -8.91396852241399       -4.14165863675486        5.06177185727975
N           -7.01545134902944       -4.47832712425733        7.13988588776059
O           -7.12486978992013       -2.88051377384964        3.92975183314356
C           -7.63097840098655       -3.30548425345445        5.17904314986333
N           -5.02165143017389       -4.56284478745611        3.01018500679521
O           -1.81705285673533        0.13203608420298        3.99643166507066
C           -7.88202479191134       -1.87200887370558        3.29770711319027
N            0.55596018182008        1.76356834141071        1.93630667204432
O            3.58608927093054        0.07012348391611       -3.62281202095170
C           -6.58600897649945       -4.09808041741854        5.94047477126568
N            1.94093094362672        1.95696771488342        1.86114748489850
O           -0.02802204073930        4.97715761194021       -5.12871128332266
C           -6.22322912197505       -5.16708018330612        7.93975618254737
N            2.18769220256047        1.71974400425545       -1.66612432325174
O            1.65584734098059        3.76782569699500       -0.91599351199953
C           -4.93378539767121       -5.53028827948590        7.58980490727032
N            1.65119862958589        4.47314143337284       -3.73922872832276
O            0.18601291198993       -0.43542332418326       -2.04585980702516
C           -4.47482650037328       -5.13580642141780        6.34709734746599
N            2.73998306616181        0.64200686924020       -5.64925634316527
O            3.79347800626508        1.98322186367012        0.58798443768773
C           -5.29554177775920       -4.40169144370646        5.48727398640005
N            8.48310483945235        0.73415873831555       -5.01430554228051
O           -2.04410282257416        1.94755271303501        2.70756186796381
C           -4.70667522612863       -3.97603368926027        4.20942419550105
N           -1.49403982108478       -1.94395558444632       -0.35669293998292
C           -5.88058111002780       -5.70711701387737        2.82764976874111
C           -7.10583776553626       -5.41768394612469        1.96427429458869
C           -3.69800435731949       -3.05123664457442        4.04301598069242
C           -3.01444953496856       -2.28143218489476        5.13043821107866
C           -3.54260041270328       -0.85313030658893        5.39066371626168
C           -2.85921127930003       -0.28798385256340        6.63907702343765
C           -5.05553137989919       -0.87247422099908        5.59759588917302
C           -3.23827844338029        0.05111956163264        4.19264955649916
C           -1.35538965324866        1.10618029408948        3.24278678324456
C            0.16206923876513        1.08286632504640        3.16100170978624
C            2.59964540557428        1.73187587329821        0.71362542550880
C            1.77833961914536        1.11038299260410       -0.41723309522230
C            2.12236384876697        3.04715949068114       -1.79382447423195
C            2.65421070733434        3.60943349101195       -3.12513050134318
C            3.99451406207960        4.33207953727094       -2.84426085837962
C            4.52483780015279        5.03357895208472       -4.09141169461930
C            5.01946634459071        3.32146575515232       -2.32819867652064
C            0.85706458362185        4.19535574891544       -4.79270183525716
C            1.04943071817405        2.90981271818190       -5.62454874227484
C            0.68508703883873        1.66721634532945       -4.79249211766673
C            1.37360651454314        0.37907171804390       -5.26199562383035
C            3.73948963370377        0.52528923825070       -4.76021029755604
C            5.04229373818391        0.93433105398118       -5.21107183173198
C            6.19745216777571        1.20949165575092       -5.41390600651205
C            7.55722757721118        1.62205704403981       -5.73666628275642
C            8.18355253318761        0.56465051920821       -3.60695657440037
C            9.88631856036552        1.04438938598417       -5.19722363031962
C            7.73557808401834        1.43146178748245       -7.25308253218929
C            7.69597983946068        3.11511054317932       -5.37795228690274
C            2.82926009118233        1.51289292152566       -6.79721218862607
C            2.39103257268674        2.91785641584169       -6.37625978445868
C            1.28487312553319        5.69153840726374       -3.02854002597981
C            1.97394329245871       -0.40721062923544       -0.45863346433663
C            0.71311232364601       -1.13756278645794       -0.93035082012475
C           -0.33363354615642       -1.27636257630894        0.19085234371880
C           -2.04855293793062       -1.16620349606298       -1.44935930174867
C           -0.98432816724618       -1.05160817887777       -2.53874065733727
C            2.57165290909821        2.62533651948742        2.98780082800432
C            2.25645094292500        1.85602860770039        4.26789808903179
C            0.74189291162072        1.74367759825180        4.42636672388735
C           -3.38902920107692       -3.04283218644111        2.64996877093515
C           -4.23565019550946       -4.00272143751251        2.04267149367820
C           -4.14982329199222       -4.26689662216831        0.68015343761798
C           -3.24978668466309       -3.54705085760105       -0.06713832905563
C           -2.40881963959032       -2.57507675080487        0.50878876096666
C           -2.46531282087811       -2.33832046510261        1.87025471696429
F            0.06536278617367        2.98818031455418       -6.63487368145922
H           -9.71733743440222       -3.55203220846029        4.63013117371824
H           -8.73716367323430       -5.01473250462831        4.43981442356935
H           -9.20483968753143       -4.46382161028507        6.05546769347138
H           -7.86049989636184       -2.41614196264089        5.79247097617142
H           -7.29086431457320       -1.54728475188661        2.44355381234338
H           -8.84766627812310       -2.24677334262191        2.94570250886367
H           -8.05028632807097       -1.02559324917717        3.97251039806737
H           -6.65154077127108       -5.43243168419220        8.89662191490854
H           -4.31312676704769       -6.09847287148298        8.26322828725708
H           -3.47734566668963       -5.39417117017099        6.02271685451843
H           -5.29269798228187       -6.51177769102413        2.37090571550919
H           -6.20099136984223       -6.03482527555313        3.81965156972161
H           -6.82254106667591       -5.19742110822282        0.94063211474539
H           -7.76168301308334       -6.28336724013802        1.96481018514798
H           -7.63922881027922       -4.56173033862827        2.35950800037986
H           -3.11426715289164       -2.83879609196161        6.06404227240646
H           -1.95189652165407       -2.20720496842493        4.88993210288946
H           -3.11195026874958       -0.88932244853682        7.50842633342370
H           -1.77915866522166       -0.28953069582008        6.51743976839834
H           -3.18684603732232        0.73317801384767        6.82013267025905
H           -5.54240976023654       -1.31066313907558        4.73224601358631
H           -5.30241512964328       -1.47129149076579        6.47106862481693
H           -5.43641293507379        0.13559366395063        5.74770114917788
H           -3.62275242585432        1.06373822963678        4.35112709419136
H           -3.69012406291706       -0.35112164917598        3.28133993170001
H            0.50714335972803        0.04562729137322        3.10127035401932
H            0.06696808559982        2.65964264765074        1.87195538552773
H            0.72763416766102        1.36035559623715       -0.24711773666804
H            2.69041942759833        1.13267257816740       -2.32895048653663
H            2.86086933442411        2.77857788439522       -3.79421157982950
H            3.83242262919482        5.06959403284472       -2.05402934185629
H            4.85175077633588        4.29974109341449       -4.82374672605107
H            3.76686713688837        5.67180899610439       -4.53632372390777
H            5.37972189818104        5.64929607846626       -3.82679878068808
H            4.69995086328949        2.87974414629860       -1.38501539036135
H            5.17706890716475        2.52067074467662       -3.05042511279230
H            5.96839276553008        3.82529816838041       -2.15623694218249
H            0.90285003519278        1.83514940259300       -3.74079257791930
H           -0.39661724776847        1.54649587284599       -4.87305877971859
H            0.85661128655318       -0.03562487236236       -6.13004847611905
H            1.36583520851680       -0.34705042266237       -4.44706035324489
H            8.81044077150357       -0.23855902918067       -3.22135400998126
H            8.37669708915364        1.46646860020498       -3.00541764647197
H            7.14180273014195        0.27816887361814       -3.47676256351605
H           10.46479765280263        0.20621461994937       -4.81123867402514
H           10.11340506087644        1.15527659193810       -6.25266277976514
H           10.20353932214002        1.95104285573598       -4.66009561075381
H            6.87463701649421        1.83637718013411       -7.77853401968287
H            8.62239689252706        1.94677979332423       -7.60722913449751
H            7.82159686784517        0.37228306899302       -7.47815948170724
H            6.97131738176180        3.69980424376305       -5.93502169047722
H            7.52826727179870        3.27169690632132       -4.31604524009680
H            8.69100968322711        3.46403363516734       -5.63663571814131
H            3.85352998154858        1.53305824802271       -7.16993431429548
H            2.16833414706368        1.12489778415285       -7.57430859999584
H            2.25394358448178        3.54663869322657       -7.25674718404858
H            3.16026178787615        3.37208003952581       -5.75932857484921
H            2.04643478671267        5.93955386367948       -2.30146597908628
H            1.16461080325013        6.49874297266412       -3.75069295639270
H            0.33494979710463        5.55207151830174       -2.50880565986403
H            2.80034180882706       -0.62580599208364       -1.13624285447298
H            2.24021701850723       -0.77275380433148        0.53229454941739
H            0.98348995873027       -2.15575306086283       -1.25554992539092
H           -0.57268582783785       -0.27737483589854        0.59343408152550
H            0.08587391841410       -1.89626043697737        0.98436656277539
H           -2.93763751346468       -1.65551321353506       -1.84460775539900
H           -2.32429355134822       -0.15247589751375       -1.10683516275112
H           -1.33238947489636       -0.42293560809344       -3.35915742529282
H           -0.74375937117278       -2.05658616109175       -2.91456266501359
H            3.64215833864757        2.66004378624612        2.78421697135203
H            2.18699585596211        3.65124096895734        3.05069366776980
H            2.69117479750395        2.37444713491975        5.12059937407903
H            2.69461451047069        0.85932266256732        4.20375330052165
H            0.30563618541723        2.73877438357179        4.54174947042261
H            0.48315794676237        1.14629431803368        5.29885847279976
H           -4.75503585488167       -5.02592347941203        0.21073781222325
H           -3.15789958603217       -3.74557801709756       -1.12377088777692
H           -1.80413151978754       -1.62308928213143        2.33268885515853
