151
 energy: -221.319245340438 gnorm: 0.007136539906 xtb: 6.7.1 (edcfbbe)
C           -8.65721550228619       -3.45271011659672        5.93776799184183
N           -7.16097756852549       -5.76982951849435        6.53283230073740
O           -8.50522298724293       -5.01654339973773        4.03756146469329
C           -7.77839867065235       -4.13161915256814        4.88749017353065
N           -5.15568221107949       -4.30194011134848        2.77647287224513
O           -2.52569413167867        0.29962012072403        4.88604129530007
C           -9.53293291685612       -4.41114211018165        3.28257677118956
N           -0.46897199826643        2.69170620815088        3.24827403797631
O            3.85667895904206       -0.93947870576499       -8.73771143313812
C           -6.72085027084870       -4.98668782677748        5.55811744940221
N            0.88372088536407        3.05014199178929        3.24734282906300
O            2.94934114510786        1.31978768394735       -3.80896353469988
C           -6.31096925856655       -6.55231524385494        7.17197552342068
N            1.98543441632840        2.64154693245403       -0.22058469262048
O            1.21328265248005        4.50149479653656       -1.24021291607607
C           -4.95489142433663       -6.58984713689767        6.88617975901627
N            2.74115771482900        3.54758662590068       -3.53660323074173
O           -1.30586020248692        2.09241673046998       -0.79044000122057
C           -4.48656371052409       -5.77701406950938        5.87051589525798
N            3.64204237530671        1.26388234557525       -8.21202580876636
O            2.85402184799032        3.22125059152340        2.18877884702196
C           -5.37416239934352       -4.95820923940518        5.17138438959227
N            9.24291554630895        0.45083853602081       -8.38866280195782
O           -3.08847151389924        2.31907749664072        4.08724358722020
C           -4.84225420761999       -4.10331619119402        4.10353968921146
N           -2.24475746198324       -0.14473704279782        0.60840152093474
C           -5.94797749645061       -5.36448808060223        2.20880638762400
C           -5.07592317807175       -6.51519644061209        1.70768066702881
C           -3.94740353478065       -3.06307127395424        4.23155475538080
C           -3.33386426054089       -2.51628628072226        5.48146539170591
C           -3.99829999364661       -1.24531777300674        6.06307816610270
C           -3.29224228181271       -0.88247517526254        7.37228184692620
C           -5.47998666033488       -1.50407331039495        6.33173189906262
C           -3.90004389479708       -0.05684350177454        5.09767266583342
C           -2.25790139017582        1.48782463013478        4.38272775660696
C           -0.75788321417990        1.71266585170335        4.29376199264686
C            1.65534651644938        2.95198472960458        2.15198785683027
C            0.98897911359985        2.57130555892373        0.82641513622247
C            2.02382125982764        3.58650359958297       -1.16637471864950
C            3.18698630848915        3.41072815763531       -2.15169738127911
C            4.34125709135252        4.37972263585337       -1.81833876656823
C            5.49403028774130        4.18604417886487       -2.80123427991609
C            4.83350206313123        4.13497427527431       -0.39409903699177
C            2.73005799845466        2.43740980758435       -4.28592065520343
C            2.65427858169479        2.51895984972473       -5.82390246100612
C            2.01706309596660        1.25544007767808       -6.40902404743114
C            2.22814802014571        1.17642919760782       -7.92507535420117
C            4.36279120632596        0.14138230893030       -8.42303852493271
C            5.78082513327814        0.29040246923438       -8.20937218745814
C            6.92985583992486        0.29847270545487       -7.84962357425397
C            8.27652967382678        0.38452041310962       -7.28802862454848
C           10.59520086530795        0.79099100023557       -7.99157296856841
C            9.22723788686129       -0.72130721055309       -9.24229140901866
C            8.31126804100223        1.68023909072513       -6.46040081064556
C            8.44907817453943       -0.83112108944323       -6.35043354032861
C            4.21979697078338        2.52334860405222       -7.80800667108995
C            4.10819913806251        2.68888627547869       -6.29224040725123
C            2.28842624639080        4.85330342586638       -3.97682558366804
C            0.34542272722743        1.18370399098312        0.79415457162978
C           -0.45031378289492        0.99456980933000       -0.51061351497553
C           -1.26620725639756       -0.30438413151283       -0.44602563648688
C           -3.16208645202353        0.93585084854808        0.28250024021527
C           -2.36050572236285        2.22786532078282        0.14999813664612
C            1.43164469451255        3.54057840125036        4.50571589438574
C            1.21559265584656        2.50227251040524        5.60226841685035
C           -0.27108592087925        2.16683426435440        5.68459332042138
C           -3.69247496705749       -2.59543518331626        2.91019763377525
C           -4.46054382882856       -3.39487530604081        2.02926130927958
C           -4.43747148986217       -3.18080929832988        0.65439812073473
C           -3.68628800751933       -2.13054835254237        0.17354191882749
C           -2.93657359396049       -1.31946732435232        1.03798758613855
C           -2.90336575178200       -1.57301391921397        2.39125874892961
F            1.91448607082037        3.60474697088614       -6.29462260947637
H           -8.02873935598531       -2.90406030160917        6.63178380542993
H           -9.34943991124110       -2.75843717876956        5.46997692629453
H           -9.20870020696683       -4.21211454036331        6.48367720371582
H           -7.29124807982494       -3.36521061928128        4.25998526345415
H           -9.17260165179232       -3.50296550075595        2.78878920978956
H           -9.82078396987733       -5.14468834941837        2.53297838477746
H          -10.39887456234204       -4.16965178546527        3.90286623180350
H           -6.74300466437868       -7.16798141366893        7.94890509116843
H           -4.29145782604409       -7.23814384352046        7.43613745067146
H           -3.44105073698117       -5.77652124415841        5.59823413653964
H           -6.65387387671357       -5.72673037414752        2.95792197086782
H           -6.52035755099082       -4.94315902066874        1.37689312903044
H           -4.24662447874157       -6.13148727973740        1.11853907202339
H           -4.67421182392615       -7.08189685241455        2.54267267594982
H           -5.66674845096430       -7.18086232667317        1.08664422262905
H           -3.37154949495410       -3.28267110489321        6.25771851571535
H           -2.28733768582810       -2.28438987230218        5.27686592565269
H           -3.71275346889884        0.02977262073157        7.78890085828920
H           -3.41304906114764       -1.68014797767741        8.09973746701328
H           -2.23076821585997       -0.72724531697116        7.19949754947855
H           -5.59241563011888       -2.36619503957107        6.98407755695667
H           -5.93969264509580       -0.64307063826422        6.81001235059265
H           -6.00482452094141       -1.70428204536110        5.40188988698140
H           -4.42317504996136        0.81569077613338        5.50259706227870
H           -4.34474678976828       -0.30430526589191        4.12950694064250
H           -0.26649147020332        0.77138120292687        4.02772890386341
H           -1.05857315631558        3.51390404832652        3.39032985932379
H            0.23739928659374        3.33433275096576        0.59231312542439
H            2.73836512359406        1.97290705954019       -0.15637879026154
H            3.56054006840201        2.38493684951056       -2.07047611865451
H            3.97307651964588        5.40679836427813       -1.88576670335549
H            5.19160997979284        4.41868737825204       -3.81735991939289
H            6.32099215257422        4.83628356165768       -2.53089990786904
H            5.84026737457849        3.15505865643614       -2.77306033853025
H            5.20675384050777        3.11909386105086       -0.28809145950425
H            5.64400778421546        4.82097378085748       -0.16481016555463
H            4.04538464170128        4.28590216831901        0.33913476162129
H            2.47090127086276        0.39301320279393       -5.91996616042905
H            0.95037503732297        1.26015629786547       -6.18216817834809
H            1.71073676658005        2.00091347206620       -8.42230929277155
H            1.85462680020384        0.22557783840689       -8.30753032125472
H           11.02518077590964        0.09443091000643       -7.25622605785099
H           11.22053851679783        0.76661756423709       -8.88294869403415
H           10.62101655989158        1.80030890572882       -7.58857351886466
H            8.19760362449597       -0.99240078581682       -9.46944618181617
H            9.73326350263883       -0.47326975339410      -10.17521130388981
H            9.73380318556323       -1.59023700476424       -8.79650537798581
H            7.42774616793015        1.72587444513388       -5.82812928659077
H            9.18985255284077        1.70699206557359       -5.82371767634851
H            8.31286870222173        2.54112892809399       -7.12251500107448
H            9.44749488215161       -0.83451073032053       -5.92053312349073
H            7.72207253144034       -0.77499281446597       -5.54461258592973
H            8.28832902591405       -1.76156576446633       -6.88949633435220
H            5.26452358594905        2.56314915080385       -8.11344549597730
H            3.66376830420651        3.32274478661031       -8.30540435225420
H            4.46870330827691        3.67508696639887       -6.00251945681974
H            4.70887320791053        1.92701768451552       -5.79339552105247
H            1.31556386686873        4.78107609914831       -4.45723331033373
H            2.17089964146915        5.48254456486789       -3.10200918640305
H            2.99620498420011        5.31082631286333       -4.66763534685645
H            1.11921393547275        0.41814144922175        0.84220980091106
H           -0.33354060684987        1.06179404355896        1.63246318022323
H            0.23199815790668        0.96796082594184       -1.36804345560993
H           -0.61646637136963       -1.14537989019908       -0.20488135319921
H           -1.72664191357482       -0.48004739887633       -1.43512670471002
H           -3.70542025714477        0.73920994700619       -0.66148457079595
H           -3.88765656816840        1.04150686078488        1.09400670807980
H           -1.96808414707253        2.50962617605393        1.13331636590850
H           -2.98589074469350        3.03454457152520       -0.23345392860563
H            2.49002803492274        3.74096213075546        4.34185344168939
H            0.92201035328386        4.47551398819231        4.76336434900172
H            1.56911856707500        2.89745483528689        6.55319050601165
H            1.78491876151435        1.60285924955543        5.36550694100238
H           -0.83723973028705        3.05072562696503        5.98910791486563
H           -0.45138405665196        1.37334191277061        6.40839447435200
H           -5.00232689557546       -3.80182304548927       -0.02352552496928
H           -3.67474056015139       -1.92458703172715       -0.88694944159143
H           -2.28024728581120       -0.96299928343534        3.02154129309642
