151
 energy: -221.324614871529 gnorm: 0.004055128253 xtb: 6.7.1 (edcfbbe)
C           -8.32802133336532       -3.70380070207220        4.89527898411484
N           -6.73748477496478       -6.00492941144005        5.33151076236207
O           -8.01090967151572       -5.06754897668309        2.86827636927817
C           -7.36758982583434       -4.23448859050490        3.83192417526897
N           -4.72079951263830       -3.97767977845063        1.86545593488027
O           -1.92445369689220        0.09597543917448        4.80177781865895
C           -8.95120295621879       -4.41388098650920        2.04372062244261
N            0.37147858306450        2.50185885672165        3.51044355476261
O            2.42960096757740       -1.49699947332049       -6.44897570469166
C           -6.29784762761955       -5.10498840563937        4.46355955308602
N            1.75969367438496        2.66710241266691        3.44034138350565
O            3.81662811529966        2.57802731713266       -3.05317507129412
C           -5.87709784136127       -6.81649444765797        5.91776645469397
N            2.31611111731799        3.35989682414301       -0.08956286354413
O            1.41030373521361        5.42691224402537       -0.17606029443226
C           -4.51200755868050       -6.77569565797169        5.67791195868869
N            2.43690000326933        4.35332152171924       -2.99488355322917
O           -0.77797667917089        2.86244414562613       -0.68102568924588
C           -4.04361908996408       -5.84048932518265        4.77447361368027
N            2.60370876961885        0.72222004879217       -6.90929716466282
O            3.61084859103114        2.91148930531516        2.18960446059553
C           -4.93982817838126       -4.98048719613598        4.13810834654776
N            7.47832565874335       -1.72974788771044       -5.61184673733240
O           -2.21497102903332        2.27111757502667        4.34598257191015
C           -4.41175627223283       -3.97730805895817        3.20839506112727
N           -1.82690202162381        0.47585565848689        0.34290640130190
C           -5.37013512040058       -5.04856434939841        1.15074019334328
C           -4.35327849872693       -6.06799568716155        0.64023802488412
C           -3.55395446374342       -2.94047694051047        3.50372464541084
C           -2.95449565503642       -2.61660664936489        4.83518339717887
C           -3.61230594613242       -1.45773765967778        5.62032536322415
C           -3.02919110412260       -1.43970477475696        7.03579488730087
C           -5.12640276284790       -1.65542933813328        5.68876234582606
C           -3.34009188894687       -0.10627672944579        4.94884842457118
C           -1.50149573735069        1.30011460386077        4.46943281698040
C            0.00957627120091        1.32617344969355        4.29762511314947
C            2.39060424104073        2.80592200781242        2.26381316823913
C            1.51068378553451        2.89237533470234        1.01507248881364
C            2.20586278885588        4.59400397661761       -0.59162359348756
C            3.11753811703396        4.84270708882372       -1.79631958204646
C            3.53073398845327        6.31610224338120       -1.92682432329178
C            4.33604835505722        6.53437453409970       -3.20514205736444
C            4.36021784547471        6.69849540409457       -0.70240514930141
C            2.95036168534173        3.27333641596497       -3.59043689932080
C            2.51174908295881        2.86407547991256       -5.00612183027012
C            1.55573115926808        1.66808523127077       -4.93345207960173
C            1.32639430467845        1.05026084201947       -6.31824889170000
C            3.11161810414153       -0.51960940492587       -6.75929097062675
C            4.53504399330574       -0.62875803095572       -6.94892986403770
C            5.72332250271506       -0.80856349629298       -6.87233219581391
C            7.17704014164791       -0.93882797708078       -6.81400575164262
C            8.87813922904518       -1.80946142125435       -5.25248820352620
C            6.87511738785944       -3.04751243756491       -5.61003405205378
C            7.66647915420224       -1.56599510084591       -8.13503725543548
C            7.74041909148609        0.48516111161595       -6.67637044818240
C            3.43019398941846        1.88414789926859       -7.14017642266449
C            3.78083043037136        2.54105136652010       -5.80686128714050
C            1.21701663279029        5.03628209046863       -3.37446468295721
C            0.84432154694415        1.56251643672095        0.65611943075949
C            0.00561676654360        1.68096992664203       -0.63035292611423
C           -0.90256184830404        0.45052124899712       -0.77080712589047
C           -2.67809419915689        1.65019888655448        0.26340895843530
C           -1.79725137856379        2.89782630509783        0.30499231507504
C            2.48325295927904        2.70892723127932        4.70277635415730
C            2.19050042519267        1.44456921926684        5.50533434112856
C            0.67962024268017        1.30484312687860        5.68500443386353
C           -3.31452008961976       -2.26282318187776        2.27257032720205
C           -4.04981094597674       -2.94652111418846        1.27192095295465
C           -4.02004283938277       -2.53300803885829       -0.05600043737653
C           -3.28129478732779       -1.41434442292308       -0.37390437439217
C           -2.55438068807820       -0.72386402652718        0.60656489694008
C           -2.54594311015001       -1.15852371693539        1.91437711378028
F            1.86803457866828        3.90919497046761       -5.67515582483891
H           -8.85262420794114       -4.53950645235673        5.34815335525085
H           -7.76344492285352       -3.18052931798048        5.66051164586396
H           -9.04404899903061       -3.01472469238596        4.45678077307252
H           -6.89392809986052       -3.38860514628947        3.30606160984449
H           -9.17393060303245       -5.11214226881082        1.23941460308434
H           -9.87162223235287       -4.18137391423180        2.58508878141594
H           -8.53063809597804       -3.49225250283596        1.62616600533099
H           -6.30740354024563       -7.52654171397197        6.61176240038511
H           -3.84294951478024       -7.45535256735049        6.17981015641665
H           -2.99116432651351       -5.77493497510769        4.54023598042023
H           -6.08604619083849       -5.53660963920103        1.81424596623876
H           -5.92008024441178       -4.61485971574834        0.31166940258292
H           -4.85937212492170       -6.83634390167599        0.06599767401582
H           -3.61617560628344       -5.58260266133663        0.00637412935306
H           -3.84003364055689       -6.53589681799887        1.47495442063891
H           -3.01540281024957       -3.50460118063926        5.46610445088869
H           -1.90142678987747       -2.36913593391577        4.69127850793830
H           -1.94547844042285       -1.35220956989223        6.99860362081256
H           -3.42485034444439       -0.59907045733635        7.60067983166800
H           -3.28509343520364       -2.35706875031414        7.56134873213024
H           -5.35206843802574       -2.62766763433235        6.11929124530820
H           -5.58563148408479       -0.88606102445059        6.30389437386319
H           -5.56326226754336       -1.61069930950262        4.69452866012529
H           -3.75025698201128        0.71770260510735        5.54086358503576
H           -3.79364726503666       -0.07275805449863        3.95358897512844
H            0.31756986873298        0.43624911601415        3.73799208607457
H           -0.06907745441992        3.32781227990797        3.91965061567502
H            0.75213792648931        3.66367192054326        1.18304287378185
H            3.04238513470729        2.74277563581774       -0.42588542896744
H            4.01969400533408        4.23196683545548       -1.68867758102818
H            2.62950851718380        6.93472147294322       -1.94305958631636
H            5.20007803919342        5.87259313889984       -3.22077040527739
H            3.73770081441451        6.33588706503207       -4.09054069116866
H            4.68603128106101        7.56138541467286       -3.25133990692829
H            5.26519852278495        6.09684353711875       -0.65221450231685
H            4.64012930530933        7.74666734623434       -0.75177467203632
H            3.78883260565795        6.53680329504213        0.20869472607915
H            2.00591898409152        0.92523569509107       -4.27199281098542
H            0.60423855441115        1.98803529982396       -4.50635989992806
H            0.80704695356849        1.75890860732976       -6.96755809771336
H            0.74111838674932        0.13408020448738       -6.22852807727809
H            8.94474863759971       -2.32870677631648       -4.29688477054587
H            9.48587402035859       -2.36453657638538       -5.98302635122078
H            9.29146736300891       -0.81394899381895       -5.12303305067497
H            5.83740976255633       -2.98001990831501       -5.93202071431062
H            7.40385903715213       -3.76553025590725       -6.25571206279356
H            6.89329464139908       -3.43156504078051       -4.59017285594299
H            7.40147813905240       -0.91966758990058       -8.96673143479344
H            8.74723365925871       -1.68194287553627       -8.11207717088648
H            7.20574820205167       -2.53762274348324       -8.29235657975136
H            7.50830044822232        0.87995152594171       -5.69099160832517
H            8.81551577540939        0.49261345069759       -6.82784074327586
H            7.28505946642046        1.12703773781302       -7.42627271840207
H            4.33838858580047        1.58987645231867       -7.66493855115865
H            2.86214796838316        2.58196199487692       -7.76123050445926
H            4.33066192329164        3.46728430330952       -5.97544645063523
H            4.39671769279145        1.87000285393476       -5.20727374893152
H            1.40289716406189        5.80946925362363       -4.12030779181316
H            0.49014832609628        4.33024953104449       -3.76757620648327
H            0.79389020894780        5.49162330456033       -2.48127949813893
H            1.60613174282483        0.79862800788157        0.50074531084161
H            0.18742155422392        1.25766105591856        1.46735423566511
H            0.66635261185625        1.76420874686411       -1.50044211885876
H           -0.31074655803508       -0.46424985897223       -0.72310435800738
H           -1.41138522621649        0.49875163439523       -1.74998146001210
H           -3.28274755492028        1.65076397451874       -0.66178550949273
H           -3.35022395956016        1.65945232573601        1.12317650265417
H           -1.36461340484644        2.99362874798388        1.30759904247572
H           -2.38045304481617        3.79185707520643        0.08000701487974
H            3.54259257678694        2.80277482696868        4.46411106243405
H            2.15839322514719        3.59527758402365        5.25897547846984
H            2.68471236545782        1.50499357613974        6.47376211506711
H            2.58111962338627        0.57922947856135        4.96841272372979
H            0.29751404933621        2.13596342269210        6.28255785373961
H            0.43527383786864        0.37167629824959        6.19036125772033
H           -4.56722896655021       -3.06023758912011       -0.82261227009054
H           -3.25836979579088       -1.06135969835878       -1.39453080173385
H           -1.93946382010648       -0.63365490761277        2.63102449190672
