151
 energy: -221.320987498750 gnorm: 0.009451121896 xtb: 6.7.1 (edcfbbe)
C           -8.73719348055513       -4.37584612005985        2.72093829558772
N           -8.04510902810683       -5.37309661308731        5.18712644187127
O           -6.72059465065976       -5.71845313043567        2.31957449012347
C           -7.25847874961925       -4.60315022629497        3.02819703922816
N           -4.00062376410943       -4.76789817797119        3.43995516333751
O           -3.52070004830704        0.92207410254592        4.31394064398529
C           -6.46583393483974       -5.47197060515922        0.95551444890072
N           -0.70733586028011        2.90321662062159        3.33723445469518
O            5.99013349132533        3.46958643949662       -8.57133582289421
C           -7.03306140142695       -4.85817826881158        4.50714301332229
N            0.51649350182554        3.30848497032035        3.87994605942629
O            5.17503833311206        2.45493281496634       -2.18257688556714
C           -7.91499709709213       -5.57618185634705        6.48666143053410
N            2.65796641887865        2.81886825018484        0.99655942727418
O            1.85116294747509        4.84744426044553        0.49995361961323
C           -6.76647253756632       -5.25575745749182        7.19277342216619
N            3.52969625701683        3.97844358283859       -1.93396903918633
O            0.26261652743137        1.21118503574947       -0.36356354775858
C           -5.69652232172311       -4.73092992946331        6.48822988710146
N            4.75464258103407        2.58921601678298       -6.88694402249265
O            2.74832625120093        3.49732044889101        3.63071661595499
C           -5.80833796999334       -4.53571184724295        5.11464862832817
N            6.85360340133269       -2.04117674530004       -9.10912396629751
O           -3.28786988205446        2.45316392809241        2.69634379120422
C           -4.69202289631061       -3.98435727613582        4.33714514218951
N           -0.86082686914701       -0.83827460863608        1.18890009032100
C           -3.99428283063618       -6.20900899511869        3.43560918534004
C           -2.96400164118057       -6.75348512081559        4.42413049116274
C           -4.23080716751879       -2.68675218228381        4.30503878866206
C           -4.62277308070640       -1.58543253498397        5.24169703119968
C           -5.51509120213138       -0.44116167690785        4.70679717679769
C           -5.98166574090232        0.39503537243213        5.90185432379932
C           -6.72294461346608       -1.00536235324044        3.95623882982923
C           -4.75943983238758        0.47495874609672        3.73641673892415
C           -2.86271052746312        1.86848411956550        3.66782274701767
C           -1.50236617139125        2.13858389044460        4.29254744729144
C            1.65974946870623        3.13551305365831        3.19765208935014
C            1.50919274620990        2.49825370073351        1.81296554145372
C            2.71903058220453        3.99437172344277        0.36955667658394
C            3.92916961977424        4.19767338188448       -0.54374278104819
C            4.51911888260071        5.60112898932508       -0.30662521755884
C            5.54942472521544        5.95860776312948       -1.37309991407975
C            5.13923476243729        5.62731645984634        1.08888624499908
C            4.23136526583488        3.09116307235113       -2.65141601588413
C            3.91928188393653        2.92091374797613       -4.14991945063712
C            4.42908250474628        1.57808914715216       -4.67850116857948
C            4.17570083110177        1.46698311021107       -6.18396125826939
C            5.52151124492498        2.48899976185574       -7.98502532582621
C            5.74081235836586        1.16047636066691       -8.49384349442633
C            5.89381933021780        0.13700755122467       -9.10994827784856
C            6.02144159070420       -1.10239243424255       -9.87288630639163
C            8.14183141222158       -1.50483082135704       -8.71783259617245
C            7.01290018456269       -3.34529173951166       -9.71993139562270
C            4.59546465003595       -1.66384774352850      -10.02163373246071
C            6.57981360030727       -0.72816288536625      -11.26179939665476
C            4.32315406513220        3.88921357353990       -6.42473837021310
C            4.58937217502754        4.05653388123178       -4.93203057038346
C            2.35983256190919        4.69641952077317       -2.39851013663927
C            1.28504090126130        0.99125306611112        1.87337586748426
C            1.06825590350771        0.39157851254228        0.47027312634761
C            0.44669582649710       -1.01029874873320        0.59804289833975
C           -1.70819869739689       -0.06597735404242        0.29361346934825
C           -1.08252118616604        1.30797160005446        0.07758924173232
C            0.46862982455437        4.03777730300433        5.14000410668923
C           -0.28446912347154        3.21439741810380        6.18196141477665
C           -1.66919500426741        2.86022317748163        5.64227308405982
C           -3.20460385589397       -2.66169219115319        3.31323280233291
C           -3.07694541991520       -3.98281592379668        2.81027433011523
C           -2.13863486568800       -4.29384395176099        1.83239905479526
C           -1.37793925417362       -3.27385618537558        1.29927676206855
C           -1.52301446100552       -1.95651591616250        1.75391994715121
C           -2.39198239488389       -1.66450836882916        2.78917829594778
F            2.53849070463453        2.95303348448943       -4.38029724150096
H           -9.29013564559262       -5.29017110071217        2.91517693806344
H           -9.12241400282192       -3.58750761948285        3.35985088102785
H           -8.86936043629656       -4.08536641165198        1.68263749397498
H           -6.67875194705806       -3.70848913234302        2.74544096867618
H           -5.87882608812935       -4.55391479101762        0.82861330144815
H           -5.89011014791850       -6.32198972520508        0.59554457953140
H           -7.38982258823503       -5.38966130185973        0.37681199135289
H           -8.77753519533380       -6.00691008435455        6.97646931898835
H           -6.71235825173348       -5.41454144945054        8.25844806555662
H           -4.77486233624629       -4.47662468242608        6.99146319709830
H           -4.99437255854859       -6.56488660051317        3.69110948677300
H           -3.76248670484328       -6.54778338944526        2.42329748765870
H           -3.21943399345614       -6.45299334631174        5.43805219701357
H           -2.94095984619766       -7.83771027734936        4.37693405944601
H           -1.97482198159605       -6.36786608382528        4.18714993894643
H           -5.16053525792332       -2.04076337773252        6.07597023880456
H           -3.70839153205481       -1.13347444233355        5.63224748690877
H           -6.56238000843635       -0.21211328021718        6.59021564770838
H           -5.12338332993447        0.79954291542122        6.43200629603970
H           -6.60315738011629        1.22279569237194        5.56674019126941
H           -7.26282601887742       -1.70807726104145        4.58627324594148
H           -7.40075865965031       -0.20740043180838        3.66191240868368
H           -6.39729189037262       -1.52427703506506        3.05850374467308
H           -5.36377339935682        1.35256760156230        3.48584691456406
H           -4.52819738834057       -0.05521815605133        2.80671103099485
H           -0.99734000286372        1.17977541181387        4.46076387433314
H           -1.24573769194795        3.71031174778271        3.01735669305770
H            0.65733998409458        2.98915713289559        1.33173506452877
H            3.43148573781409        2.17237680189815        0.97008028128298
H            4.69819535064983        3.44775585330879       -0.33065722512225
H            3.69959154399358        6.32641207699392       -0.33301418656948
H            5.07286742631719        6.11265358822642       -2.33769087744038
H            6.06613735759915        6.87234239618132       -1.09582835631120
H            6.28269602603791        5.16010635578011       -1.47453707893921
H            5.49335173847194        6.62696161250031        1.32425143679797
H            4.40706098256730        5.33639799300984        1.84042882134138
H            5.97954930087023        4.93921431371582        1.14259611339001
H            5.49232600793674        1.50424567163092       -4.45274269317665
H            3.91099925074582        0.76889746180927       -4.16460539249409
H            3.09395775726442        1.45424164999708       -6.36306985793566
H            4.61069928522800        0.54406249598378       -6.57053365431388
H            8.01168409719748       -0.51002763623030       -8.29665238916846
H            8.56442811720792       -2.15472398155631       -7.95218098241783
H            8.85933740505884       -1.44430413887787       -9.55068067057162
H            7.60737760667106       -3.32256264267888      -10.64498161777291
H            7.52692581107610       -3.98656414846593       -9.00561252871900
H            6.04153735669278       -3.78160371655735       -9.93045323352985
H            4.54936675370225       -2.39426339064639      -10.82109591230478
H            4.28567982921173       -2.12378600011642       -9.09111376518945
H            3.91046131282991       -0.85633946039521      -10.25809016618349
H            7.57588063619695       -0.29721270676038      -11.17424709579934
H            6.62448694613868       -1.60860150292644      -11.90082555180137
H            5.93095987963235        0.00987567919353      -11.72697666625916
H            4.86340991092975        4.64425547196056       -6.99968394851356
H            3.24805156996254        3.99371319380049       -6.61415452022864
H            4.20874684158513        5.02614681179869       -4.61173297192313
H            5.65927762961190        4.01746382382622       -4.72449732029633
H            2.53396678794867        5.16780245717044       -3.36167254631277
H            1.50375415267246        4.02395267637365       -2.48108722877715
H            2.11467830547579        5.46158902173354       -1.66830568958845
H            2.14239365156253        0.50459701586292        2.33815621225876
H            0.39726896966768        0.79272245161232        2.47193564823870
H            2.01808427021397        0.33090535660109       -0.07051289303481
H            1.06092296105324       -1.63229825830605        1.24876509444120
H            0.39996385037960       -1.46510481827390       -0.40591783996446
H           -1.81972484276490       -0.57945004259183       -0.67828758943173
H           -2.69508448936166        0.05914546162707        0.73995044803944
H           -1.14864922378262        1.88069340695001        1.01007699457019
H           -1.60822830289490        1.84891588421414       -0.71099477149845
H            1.49703545300809        4.23506813518358        5.43823540474304
H           -0.04480791877933        4.99088007293339        4.96999127849706
H           -0.37201158568660        3.78972272976271        7.10265708107149
H            0.27338323364863        2.30178309551859        6.39366484442267
H           -2.25605392819296        3.76921126736249        5.49506661939470
H           -2.20150867143373        2.21102701826540        6.33559148914889
H           -2.01943110784300       -5.30361756521603        1.47100507386371
H           -0.66825042129557       -3.49196656167959        0.51503771609841
H           -2.41707606789116       -0.65580122380670        3.15679003665845
