151
 energy: -221.328885398370 gnorm: 0.005193869780 xtb: 6.7.1 (edcfbbe)
C           -7.86544357873220       -4.41633251092272        2.31448480039494
N           -6.57900767447588       -6.07783785406409        4.21024297639669
O           -6.31802023327700       -6.02081497966341        1.27277736619141
C           -6.42212116522169       -4.88087149117090        2.12652513954476
N           -3.16964591988958       -4.40875919114568        1.80577987326643
O           -2.87808681493790        0.76458848494063        4.38856008622931
C           -6.59522587193061       -5.77289838776253       -0.08815790997892
N           -0.48795770187321        3.32036023737471        3.84673996499887
O            1.65549727988296       -1.36933643639089       -5.46853852520459
C           -5.81524346122012       -5.30739297020923        3.44983458350519
N            0.72555874051776        3.76314387146530        4.38552810075782
O            4.29144318957330        2.73766535009133       -1.75984886789731
C           -6.11806548856003       -6.50652442886048        5.37127107463787
N            2.73763141387408        3.98655243971611        1.34862296701147
O            1.66165437430257        5.80533924599404        0.58065482356051
C           -4.85873374336129       -6.18444153686674        5.85272481453800
N            3.02071510206895        4.59997307793898       -1.81789855564954
O            0.74683696331135        2.57033358146182       -0.39583756850657
C           -4.05480327800257       -5.37803094771201        5.06795736173918
N            2.41255704299469        0.77129919602126       -5.50610220684279
O            2.90643035005558        4.22189295079933        4.06536341219385
C           -4.52199370386368       -4.92427712135895        3.83505007973887
N            5.86387671532898       -3.07705960655198       -7.92662560787827
O           -3.12661627274950        2.78629459559324        3.45451215007105
C           -3.66919568706877       -4.03904494166842        3.03545773472880
N           -0.45291830708467        0.24220506270733        0.58429221230342
C           -3.17760972798989       -5.74833288040872        1.27233626878332
C           -1.98452250579873       -6.55200216021473        1.78584922885907
C           -3.25020430620620       -2.76913098339843        3.36440872340785
C           -3.53917081128300       -2.03475002814368        4.63475264958192
C           -4.62655587836270       -0.93742497543330        4.56519148535995
C           -5.01635949787576       -0.55124063359217        5.99478844734885
C           -5.85749462573914       -1.45595276945860        3.82062620809859
C           -4.12372301499078        0.30957335122213        3.82825472929230
C           -2.47852325313590        1.98493359629673        4.09163174167080
C           -1.10151005225456        2.28371479328988        4.66721957004763
C            1.82475812259807        3.85315955563226        3.62037362889476
C            1.62976579205761        3.50868697723302        2.14359619000846
C            2.60109704332843        5.01994067129578        0.51290235552392
C            3.65756853286532        5.09193548037870       -0.59297004065612
C            4.24676209475996        6.49907752990713       -0.76895442292113
C            5.30374365251152        6.48877519639113       -1.87035307795392
C            4.85180608685391        6.95344369674645        0.55786093645587
C            3.45221584799144        3.44339864324990       -2.32853557823751
C            2.90086044233688        2.92252260841920       -3.66581107838054
C            1.83696423968398        1.85613826390797       -3.38759411259922
C            1.32130617566276        1.27104891348007       -4.70094889331974
C            2.47612170177285       -0.52731913669823       -5.84827639087135
C            3.52808858240113       -0.88807470652763       -6.76223795535177
C            4.28324540450543       -1.28646887677273       -7.61380867923239
C            5.27615227539407       -1.86233029502478       -8.51986039153725
C            6.58107727898415       -2.82723319946683       -6.68900898138090
C            4.91112322482461       -4.15912015151507       -7.74978014256936
C            4.57969759044682       -2.20481886594869       -9.84675799705557
C            6.38008277650476       -0.83119863871870       -8.80611155520813
C            3.43201544212253        1.74733402196305       -5.81094533126819
C            4.02271050057102        2.31772506344562       -4.51778362513373
C            1.91390973374731        5.38417468541917       -2.32998615424442
C            1.45420759504861        2.00496259419467        1.90849341841784
C            1.47863171013541        1.65341183312792        0.40764776630049
C            0.94375708303975        0.22914592841386        0.20883729955504
C           -1.20074869399210        1.10239356499264       -0.31337063464132
C           -0.65405236366312        2.52159934203054       -0.17510714731259
C            0.70714411682247        4.21581465204903        5.76840752547535
C            0.14239016822754        3.11661394297800        6.66430892259264
C           -1.23233148225082        2.69465785375345        6.14744638664222
C           -2.44511996078200       -2.32535054936068        2.27520423638769
C           -2.40802708457628       -3.38042809050782        1.32826929144017
C           -1.69045574820403       -3.26301257339117        0.14221290227230
C           -1.03770417132837       -2.07606684373214       -0.11027191931998
C           -1.06969438221290       -1.02392077889816        0.81542404338648
C           -1.74401869417255       -1.15246581946880        2.01056303248697
F            2.33785395689801        3.94079158686925       -4.43746684967698
H           -8.27929083778170       -4.06496581740398        1.37346065094238
H           -8.45940486384089       -5.24387142959776        2.68961875116489
H           -7.89244043023114       -3.60191304074810        3.03154079088459
H           -5.82270138491173       -4.06249078303706        1.69487072893310
H           -6.31363353863000       -6.68121398927004       -0.61656890965551
H           -7.65618489673369       -5.57147349553163       -0.25687830336310
H           -6.00195895169986       -4.92950640962522       -0.45948817938259
H           -6.79493408586227       -7.13175106416142        5.93710939035074
H           -4.51983832421129       -6.55302244758597        6.80701285793820
H           -3.06137315477942       -5.10462168387548        5.39271869853300
H           -4.10896489583050       -6.24002183889073        1.55949413978671
H           -3.14495600610764       -5.68284909033667        0.18225229228597
H           -1.99313720289306       -7.54607111198694        1.34930384025657
H           -1.05232546390174       -6.05790812360624        1.52137124136822
H           -2.03361913047957       -6.64611047698386        2.86821611858828
H           -3.86656911737723       -2.76234122653873        5.37889622151745
H           -2.61635101417345       -1.57304415263913        4.99019470150891
H           -4.14462578926380       -0.21069981945513        6.54808470333959
H           -5.75483522357301        0.24695018449304        5.98549760299560
H           -5.44426495457066       -1.40633668793165        6.51179488775247
H           -5.60894573159024       -1.69326759258324        2.78948547953666
H           -6.22381851465267       -2.35889362343690        4.30233989913454
H           -6.64927945635049       -0.71143501363753        3.82341958858242
H           -4.85375894536578        1.12201341288509        3.89580635041954
H           -3.95181825570912        0.08819268452390        2.77101006092865
H           -0.48512222900768        1.38082857206654        4.59886705057953
H           -1.14516578436702        4.09508161374528        3.74025681709112
H            0.74936944114044        4.05761723311767        1.79209189229266
H            3.56017451844950        3.40477093113324        1.30999227025553
H            4.46857495337607        4.39199432889287       -0.37104739668628
H            3.44254303557664        7.18884854531323       -1.03778087003939
H            5.72003551857474        7.48315771749721       -1.99935892550502
H            6.10933745679945        5.80522585560841       -1.60986653637223
H            4.87697857895711        6.16671454386906       -2.81697101403966
H            5.61267728118883        6.25232114530196        0.89193309484968
H            5.30908209060448        7.93204597999974        0.44164247886080
H            4.08404964605079        7.01928134122876        1.32528346459479
H            2.30823066940838        1.07943528325163       -2.78302007996942
H            1.01521310224576        2.28328368284971       -2.81207850532347
H            0.79826926964164        2.05051571374438       -5.26545389374194
H            0.63755239425383        0.44157070312793       -4.51109261704504
H            5.93452599084127       -2.43466792062330       -5.88930717576277
H            7.01303023411880       -3.76716715130367       -6.34961491164985
H            7.39420950673192       -2.12886036036818       -6.86311644845384
H            4.55752345540935       -4.50695428749336       -8.71666587907523
H            5.42155593431990       -4.98759857891962       -7.26251898569437
H            4.04609202716916       -3.87440428765858       -7.13130011274476
H            3.66221401211803       -2.76302453628696       -9.68341369419650
H            4.32403510491511       -1.28856150260040      -10.37174538628437
H            5.25732562813153       -2.79052126120714      -10.46093836092984
H            5.99528356570297       -0.05667508148204       -9.46343423728591
H            6.73147608229261       -0.35501216164880       -7.89521613972122
H            7.21068631846143       -1.33124686800682       -9.29528606368637
H            4.21285866017230        1.27583698130665       -6.40737736378156
H            2.98022869056265        2.56105484668260       -6.38813843432717
H            4.75082594465514        3.09211857250438       -4.75952064645610
H            4.51825887759546        1.54276803453957       -3.93483998767770
H            1.10665688388951        4.73608994139324       -2.66130286395683
H            1.53182907070012        6.00015808455724       -1.51986784348767
H            2.23060955607481        6.02176353212306       -3.15570537805534
H            2.26078144853170        1.46055442491805        2.40014236011188
H            0.50098024086706        1.68644759476279        2.32532336661646
H            2.49807751468725        1.72118898917846        0.01218255037383
H            1.48237827923926       -0.46493988433189        0.85458060858439
H            1.09989511588290       -0.06897807751168       -0.84362576965199
H           -1.11474642533523        0.76837301851614       -1.36412621480553
H           -2.25300597637947        1.09018214552457       -0.02535806407831
H           -0.90131235626030        2.90504299867469        0.82123952028503
H           -1.08670215949210        3.18197133699170       -0.92846109434647
H            1.73182564466137        4.47195569163241        6.03567922370162
H            0.08265341271801        5.11336957357827        5.83241880588885
H            0.06474378893457        3.48807429408252        7.68491008518441
H            0.81870298035471        2.26115075372795        6.65623782214123
H           -1.93414229287021        3.52819635694975        6.22897048453466
H           -1.61971426832980        1.85556081047718        6.72301147439690
H           -1.64957038693519       -4.07013033776858       -0.57343394041236
H           -0.49119626086018       -1.95591821367211       -1.03497071359043
H           -1.70699680261302       -0.34059510474921        2.71559226487123
