151
 energy: -221.336254928274 gnorm: 0.005916953400 xtb: 6.7.1 (edcfbbe)
C           -6.88557391643169       -5.03985359540660        2.79118793570632
N           -4.75793758542178       -6.80437783020417        3.55665001775357
O           -5.82237262537674       -6.04011458009206        0.79806926841881
C           -5.62193682710249       -5.21950085615845        1.95128861255871
N           -2.76079936518703       -4.12272791758412        0.55215401781434
O           -2.22729199497369        0.65781118779178        3.72566486787258
C           -6.40870064663066       -7.31058878037545        1.01974773350070
N           -0.44549884193613        3.63814276753955        2.99904117380126
O           -0.61204183525660        0.33115202411532       -4.53831332011241
C           -4.47787401067235       -5.75179280492895        2.79610136994272
N            0.71499332932565        4.26267717554469        3.46935281750087
O            3.99789099416333        2.96191282881789       -2.56374306743384
C           -3.81247219521921       -7.33761862168947        4.30998905276632
N            2.89462202057225        4.33869532361101        0.52278470397829
O            2.17992790241488        6.30008350173951       -0.32314067891395
C           -2.52389522655293       -6.83214885472468        4.37579821143612
N            3.58257149114905        5.17323317395607       -2.61549130433367
O            0.70223872606624        3.17795777109416       -1.32820320489362
C           -2.22028206733746       -5.73689210639841        3.58884358275363
N            1.42091993486030        1.27952059033883       -4.89917201557269
O            2.86653366838586        4.82894876693859        3.14975427684435
C           -3.19818489164315       -5.18176514843039        2.76200941067635
N            3.31055666007932       -3.68271189051760       -4.30149446250189
O           -3.02622540448959        2.57246086730726        2.87446016824587
C           -2.81836491599470       -4.03755721220850        1.92652520013250
N           -0.58704238915641        0.84389285865015       -0.49398754906478
C           -2.89408219502951       -5.32973996544426       -0.22391305189415
C           -1.56277132680032       -6.07424326866744       -0.30888806707626
C           -2.37098660228266       -2.80565863351016        2.34901951866202
C           -2.28526246782458       -2.29053465966018        3.74933143589272
C           -3.45630810000124       -1.38316407815196        4.19583616074807
C           -3.31533306387390       -1.11092429228637        5.69629139579224
C           -4.79337004254151       -2.06999871152960        3.92307117873217
C           -3.44432102548117       -0.04618267288517        3.44149483184693
C           -2.14559667985921        1.93374073396048        3.40467592373013
C           -0.81693551801428        2.51688938047080        3.85789657046929
C            1.81606526923709        4.37636911085937        2.70773958839794
C            1.67937019651289        4.00031310120659        1.22886224408953
C            2.99749370212294        5.38708758476616       -0.29912493605067
C            4.17432324086954        5.30691431316279       -1.28211726126850
C            5.14908002341140        6.48370891318119       -1.15152309037827
C            6.27380188300684        6.35811127560157       -2.17727985263895
C            5.72075899561325        6.48090574512123        0.26682511289487
C            3.55556837382298        3.95081273543740       -3.15423047962246
C            2.94742306186020        3.75168295375704       -4.55550578954141
C            1.41241495361941        3.67915713420828       -4.46871706385823
C            0.85433385277666        2.54161044830086       -5.31883249326441
C            0.62360027462768        0.26980723800239       -4.51893228000518
C            1.29712589527880       -0.92993778729378       -4.09874105147238
C            1.66097902150731       -2.01218094558449       -3.70937214798618
C            2.24933214589752       -3.30213590946532       -3.35304107334841
C            4.46634228283044       -2.80425326693080       -4.27473841543534
C            2.83776381738251       -3.85238384387460       -5.66470786357612
C            2.82684512092805       -3.20228165038475       -1.93014730767446
C            1.13564501851591       -4.36156707946125       -3.35902364198967
C            2.86354550273932        1.21779891971887       -4.74541335584725
C            3.52563078322199        2.50079660092439       -5.22936946225019
C            2.97098656766772        6.35862248303067       -3.17917971824613
C            1.36960923647045        2.52529592960011        0.96098341267734
C            1.39855082403299        2.21375439188410       -0.54847015278501
C            0.83026737603187        0.81217804346258       -0.78976548680106
C           -1.26895778666082        1.74648110817689       -1.40260260208271
C           -0.70619772580017        3.14382630914107       -1.14960699352810
C            0.69194676696827        4.73313627210009        4.84793151000182
C            0.34722784979977        3.58187468291040        5.78986268298909
C           -0.95765778592600        2.93093658614222        5.33594920883409
C           -1.99372185745941       -2.09712067538755        1.17232604933974
C           -2.25102158720959       -2.95057500249345        0.07111601752086
C           -1.99167374202399       -2.54445318328883       -1.23438818690122
C           -1.46516814339695       -1.28728837888737       -1.43396837880412
C           -1.17138337306988       -0.45003731641286       -0.34772995246903
C           -1.42037213920238       -0.84921848646886        0.94728793226453
F            3.31349922255778        4.83094780308490       -5.38051951107745
H           -6.72686001829520       -4.24595062375654        3.51385016447383
H           -7.71843455926203       -4.76964130118514        2.14608383229392
H           -7.11440481541523       -5.96008474418842        3.32168395383109
H           -5.32500224928867       -4.25852670166843        1.51564590362794
H           -5.91862735897135       -7.83395960597567        1.84461129303114
H           -7.47807257012060       -7.22054231727271        1.22665326072871
H           -6.26445978893959       -7.86135681043029        0.09180204466319
H           -4.11066912785457       -8.20287209633597        4.88619046701953
H           -1.78447794421864       -7.28659491990839        5.01500837493086
H           -1.22811313770225       -5.31028678152159        3.58922338849145
H           -3.65709443530184       -5.96280762436645        0.22945644246088
H           -3.23699997537575       -5.05382113146984       -1.22259000740485
H           -1.66104226898092       -6.93900326213305       -0.95815924460687
H           -0.79174587905854       -5.41953969593888       -0.70991707357567
H           -1.25267681909532       -6.40946769915254        0.67840054841710
H           -2.25043147164264       -3.13796106326167        4.43593716847887
H           -1.36034371165632       -1.72119634047324        3.85580133784865
H           -2.36499363769273       -0.62791837514129        5.90570870343536
H           -4.11747268064447       -0.46356170320225        6.04253368626482
H           -3.36237868378692       -2.04276015405486        6.25295863253326
H           -4.80532275326654       -3.04862863517976        4.39626296536378
H           -5.61514374142891       -1.47946805615671        4.31988675584547
H           -4.94639993030164       -2.20048297280918        2.85475972618417
H           -4.28965962493526        0.57999538441034        3.74855198350886
H           -3.51256981527204       -0.20327380017031        2.36097612472934
H           -0.04059598774450        1.75020305046884        3.76839028094191
H           -1.22121210097093        4.30074668083603        2.95178258420322
H            0.89205565421945        4.63714231851746        0.80865539517820
H            3.64412109836072        3.66510022698804        0.57168525600878
H            4.72518534708153        4.37805047825344       -1.10730621830118
H            4.60629133740182        7.41961295629189       -1.30693595082601
H            6.81822252678397        5.42750052142995       -2.02464713013198
H            5.88563326222978        6.36308596941436       -3.19358053512918
H            6.96819269073413        7.18706313431661       -2.06929126131683
H            4.92480790847852        6.55260262793677        1.00576395619948
H            6.27801867778263        5.56404979292306        0.44942797616045
H            6.39309185324319        7.32361324713201        0.39979655020967
H            1.12197071724457        3.53140754291511       -3.42562111787041
H            0.98464939784091        4.61752572250625       -4.82096959741465
H            1.07255371281386        2.70778362013740       -6.37818504070418
H           -0.22873693238295        2.46915031167360       -5.19271008557228
H            4.22017248988333       -1.76188630487870       -4.52861908228529
H            4.93296719439734       -2.82687279685485       -3.29374282766221
H            5.18949286910002       -3.17509034598913       -4.99939031733818
H            3.68597727279039       -4.12542639227014       -6.28960807756670
H            2.11426473781378       -4.66125440567858       -5.71141860361385
H            2.38064839761088       -2.93994096389305       -6.07741875756025
H            2.01601026981202       -3.20926061883554       -1.20481809812592
H            3.47674629326232       -4.05524348434427       -1.75341281410841
H            3.38697215811460       -2.27964517211060       -1.79572353628569
H            1.57945674370714       -5.34803008861567       -3.27021992233571
H            0.46773228747840       -4.18665181819069       -2.51922755740852
H            0.54258916648406       -4.30922137155533       -4.26743676684799
H            3.11668707321297        1.06281570067012       -3.68991169873724
H            3.25583908749987        0.37315689783523       -5.32242895726748
H            3.39143616110883        2.61792905735103       -6.30567359824115
H            4.59371515041136        2.44013743189953       -5.02004677748490
H            2.09749788240590        6.10176160253026       -3.76954885690420
H            2.64118095748620        6.99073474019698       -2.35674482388193
H            3.67925781791184        6.90162619663563       -3.80754066611438
H            2.11495874628998        1.89901665803436        1.45093260439962
H            0.38270735258859        2.28069032411988        1.34612820031527
H            2.42246197366094        2.26203171312926       -0.93564130862117
H            1.31458273605042        0.09756868398886       -0.12332280920379
H            1.02891394639939        0.50533290553355       -1.83273125021068
H           -1.12850492262112        1.47058076045052       -2.46119297089983
H           -2.33631337689577        1.73374977023196       -1.17658865557138
H           -0.96840371908915        3.45584025279364       -0.13184899122537
H           -1.10569198772641        3.86517916162096       -1.86431317525075
H            1.67543914863795        5.15066939092252        5.06288225863238
H           -0.06225842934329        5.52505485705845        4.92601865633050
H            0.24777721206369        3.96212295170734        6.80533985238816
H            1.15243775577520        2.84624901409023        5.77056100150170
H           -1.78421709404973        3.63950060941627        5.43046232923021
H           -1.18305511397573        2.05375342845640        5.94145130728165
H           -2.19499048703444       -3.18743085779283       -2.07733587908685
H           -1.26470352588621       -0.94567882538914       -2.43957223079627
H           -1.15480647446526       -0.18851446158931        1.75559938052161
