151
 energy: -221.323295879080 gnorm: 0.005438750851 xtb: 6.7.1 (edcfbbe)
C           -7.90202352791494       -3.98950134953534        3.73673742133043
N           -6.32228731046799       -6.20503238546429        4.54705415863018
O           -7.30847379251395       -5.53593827064679        1.90667057113721
C           -6.81049350443169       -4.58355501267331        2.84705598861182
N           -3.95810351279749       -4.20087455521017        1.26800597031193
O           -1.85128103487769        0.01850131503557        4.49125607775161
C           -8.21783531928350       -5.02859376018188        0.95472075283658
N            0.32083856957660        2.65053962576945        3.50609266035157
O            1.48618740439635       -0.24467354222795       -6.45916670734273
C           -5.80003543978280       -5.35368097971060        3.67653154285945
N            1.69348566310007        2.92820610168309        3.54703205528049
O            4.08792987545015        3.59343551126951       -2.23107924966316
C           -5.52363135146697       -6.94475335682688        5.29423706620065
N            2.36270350301194        4.04568315989585        0.15524173517906
O            1.08147929886702        5.90627003113375        0.11666598339664
C           -4.14128875199637       -6.88778678804401        5.20885265557955
N            2.73613692614100        5.35829204133756       -2.58961803180611
O           -0.65041374898886        3.14296422515534       -0.60627771252887
C           -3.58633066351274       -5.99898568005071        4.30690854540529
N            2.84477825825710        1.56236267991538       -6.31062258259293
O            3.57048897734174        3.52375195513388        2.46533102507440
C           -4.41452220205377       -5.20048826573868        3.51709895551757
N            6.07934889119340       -2.79364369599111       -5.12489517846679
O           -2.29125378653126        2.20396182432227        4.24035858935597
C           -3.80509440177682       -4.19848477359950        2.63783252384370
N           -1.34941050039657        0.53588868632252        0.15826099889076
C           -4.47749597708308       -5.29056532587270        0.47938942834689
C           -3.36201409510347       -6.22769078146541        0.01935469395783
C           -3.04459826318707       -3.11938092270374        3.03370151099896
C           -2.59739239867098       -2.77796415351880        4.41974727623299
C           -3.42436964710288       -1.70754389832308        5.16932020006453
C           -2.94274381216498       -1.65684871039911        6.62136332013580
C           -4.91097323880908       -2.05749257883580        5.12809666693993
C           -3.24450621469960       -0.32299580121969        4.53397414997368
C           -1.51247418058832        1.27801625275782        4.30480739650802
C           -0.00083360414420        1.42595888206658        4.22824888847077
C            2.37247460721860        3.26003290198990        2.43721481452110
C            1.56966202352578        3.34407900135096        1.13779674767796
C            2.07258019109675        5.28690030515904       -0.24713980225499
C            3.08623683431909        5.84983649389742       -1.25380804231964
C            3.19313884659315        7.37686106861083       -1.14033020726453
C            4.11507756964284        7.94701971309866       -2.21479569004970
C            3.72481668669619        7.71994149599363        0.25139774154573
C            3.33934274317654        4.22566492842394       -2.97959323155634
C            3.15609550522864        3.71360646142635       -4.42321549286689
C            1.81683836236536        3.00356612208612       -4.64119908034668
C            1.74562607836912        2.47004012398109       -6.07502328278590
C            2.61892469778992        0.24255097850063       -6.41125312016761
C            3.77238681116410       -0.61807147739517       -6.46049822520965
C            4.55704249151761       -1.53227636726898       -6.43533300994436
C            5.54348021755692       -2.60980592214314       -6.48189427244302
C            7.11944950800157       -3.79509908373702       -5.00785326512292
C            5.06596747637253       -3.00740090689474       -4.11098598693555
C            4.82902689695158       -3.84914469162372       -7.06071817367278
C            6.66225089148093       -2.15774015737651       -7.43368924431374
C            4.14499030964725        2.17279813496077       -6.17220898074714
C            4.31228169394295        2.76930231413425       -4.77290062596943
C            1.55455993318577        5.92021579704146       -3.21385753030234
C            1.14817032829494        1.96860262974141        0.61522733915984
C            0.29284986917901        2.08616554495723       -0.66141020778633
C           -0.43035141296510        0.75679385297110       -0.93636972657866
C           -2.35390854263676        1.58839747606515        0.18855006591461
C           -1.65834989460006        2.93420256013645        0.37019975467799
C            2.31941030036728        2.97501923511111        4.86054348680304
C            2.07216454381461        1.66161022978186        5.59529534566409
C            0.56937847745764        1.40259147946255        5.66174952937149
C           -2.71862940989504       -2.40821422787214        1.84266202670724
C           -3.29075894328285       -3.12194550271339        0.75973682162519
C           -3.14597105329233       -2.67532578444542       -0.54977545269969
C           -2.47807792984932       -1.48849695078959       -0.76772786911490
C           -1.93468073133020       -0.75772613790771        0.29801135333609
C           -2.01906709828629       -1.23253650604663        1.59033907453560
F            3.23046574236316        4.81144458100917       -5.29566297105385
H           -7.44347502860524       -3.36176665908237        4.49437832427165
H           -8.58762569094481       -3.38437752165464        3.14997781409253
H           -8.44432087509980       -4.79529355246909        4.22154473366551
H           -6.30596758207014       -3.77271381882859        2.29538795997130
H           -9.19269400143030       -4.81388395231414        1.40015201599541
H           -7.82523012501366       -4.12219965248104        0.48099347737407
H           -8.32933188242810       -5.81328211100249        0.20919207783623
H           -6.02031165432467       -7.60948606778448        5.98755500093405
H           -3.52252968971409       -7.51618806527256        5.82843384535889
H           -2.51486814378713       -5.92227028724111        4.19486416951215
H           -5.20470663307268       -5.84485954656514        1.07586274168554
H           -4.99335564320428       -4.87115181858871       -0.38900045245064
H           -2.86775194805966       -6.67544885487836        0.87808345020206
H           -3.77921029241519       -7.01953327794886       -0.59540664187094
H           -2.62191100822927       -5.68232932165314       -0.56177661377795
H           -2.62423688295200       -3.68322784999245        5.02710361223169
H           -1.56500633770420       -2.42864527364279        4.36976822667856
H           -3.47976177262349       -0.88961155707735        7.17481862751988
H           -3.11413416478943       -2.61286827025464        7.10860069263462
H           -1.88007657029349       -1.43212844269071        6.66062907865579
H           -5.48813593780575       -1.34565561024646        5.71310026724040
H           -5.27645574596150       -2.04322720848647        4.10457635768148
H           -5.06901845370244       -3.05263742658291        5.53601859248865
H           -3.77821469689079        0.44421305791132        5.10269530294613
H           -3.62393559609746       -0.32056006596854        3.50776488774525
H            0.41083535902016        0.58025039021200        3.66708415528587
H           -0.21620435735252        3.42428779649024        3.90244924338094
H            0.68976757667298        3.97052257881773        1.31377643964698
H            3.21475644141568        3.60199402883884       -0.16368706300148
H            4.06755268987391        5.41952880372313       -1.02726920406249
H            2.19383251613386        7.81392750734578       -1.22398875764203
H            5.11413592177150        7.53084332077801       -2.10606049286780
H            3.75577542833122        7.71741499958777       -3.21361680252129
H            4.17837449572683        9.02670901559011       -2.10862555564096
H            4.71353396962896        7.29345215471556        0.40359248653313
H            3.78784906285375        8.79831842928335        0.36886543348566
H            3.05986663016729        7.33068889559954        1.01915736716025
H            1.75532959203932        2.17361962747335       -3.93541969091553
H            0.98095964650047        3.67611424580490       -4.46325855302099
H            1.81154561233070        3.30072990608913       -6.78328217661176
H            0.81476585974811        1.92457509381037       -6.23568200002666
H            7.54819750542208       -3.71208202511192       -4.00910737907603
H            6.74608756098176       -4.82258648879789       -5.13099266167755
H            7.90653900080669       -3.60981247855090       -5.73135389148773
H            4.65930176095557       -4.03010494799157       -4.11602695902658
H            5.51603635336088       -2.82699351155087       -3.13437531632186
H            4.24705839109148       -2.30532209921239       -4.25095923198089
H            5.52048958694519       -4.68544426355217       -7.12674954268122
H            3.98430310934766       -4.13039342345787       -6.43601675268151
H            4.45682962274218       -3.62337579034602       -8.05632970505102
H            7.27557583300437       -3.00198235590104       -7.74041898114526
H            6.22240772966309       -1.71649949549982       -8.32814079251765
H            7.28499680740894       -1.41364651825275       -6.94454451919207
H            4.91638247032752        1.42303244282777       -6.35126453087186
H            4.23220583110235        2.96853220911640       -6.91899593758993
H            5.25013566651199        3.32160119237264       -4.71645410163299
H            4.33800752276389        1.98066122858015       -4.02166024628853
H            0.66193134563867        5.38644828368971       -2.87490696582535
H            1.45428948957094        6.95738899968472       -2.91254819581058
H            1.62660551193795        5.88546187236030       -4.29572016471416
H            2.03583053114416        1.38070749572251        0.38200497243410
H            0.56490935804751        1.45553320824990        1.37669191757611
H            0.93303197291328        2.34872461886168       -1.51159181884404
H            0.28859843376926       -0.06219153441373       -0.97363382309317
H           -0.93873752768392        0.83359459536336       -1.91465769738117
H           -2.94986206568970        1.59767086505860       -0.74211183793752
H           -3.02400504244710        1.41661853907837        1.03280680553309
H           -1.23777371974459        2.98272209723213        1.38115425288018
H           -2.36253794421431        3.75633860443441        0.23521000254499
H            3.38192167236017        3.15960643759066        4.70297811127112
H            1.88868881297232        3.81106527022296        5.42335413781743
H            2.49322603145390        1.72160484351095        6.59785421957113
H            2.56427716749540        0.84921064445071        5.05928001123925
H            0.08210036689308        2.17956308414389        6.25521325020132
H            0.36130244505365        0.43491519298344        6.11465805178771
H           -3.56377020753967       -3.22245120546277       -1.38121060412409
H           -2.38124642195300       -1.10928151735239       -1.77427523016010
H           -1.55413675822765       -0.66949512666591        2.37871881966257
