151
 energy: -221.318683565692 gnorm: 0.008451514353 xtb: 6.7.1 (edcfbbe)
C           -8.23217492362401       -4.40646732460870        3.19889664574793
N           -6.63931571928338       -6.14104596393666        4.70390131050962
O           -6.57651437166942       -5.30926836555478        1.61199575568276
C           -6.76183963459294       -4.59762335044772        2.83454289192200
N           -3.50628295472541       -4.48891686217312        2.10788686932326
O           -2.94721517393370        0.90501057751463        5.26993771166300
C           -7.18917121352119       -6.58292506293413        1.53212170452071
N           -0.98292890846190        3.46419386084220        3.75977454081152
O            1.93868280390429       -0.74708684120437       -6.51715540844494
C           -5.99212995568087       -5.23930611043322        3.97855943735874
N            0.20473103800520        4.15748672566432        4.02687371831520
O            4.24702224834213        2.65524027669175       -1.21669229704879
C           -6.02717334764613       -6.71105601829142        5.72829993114412
N            2.19743421016743        3.90623006062714        0.98775010030631
O            1.55811064463445        6.03120435446140        0.57703066399113
C           -4.74182553146776       -6.37696993465820        6.12346203193866
N            3.16572196467956        4.56959943880898       -1.72947253905093
O            0.77782281427757        2.06476926079053       -0.67041510364795
C           -4.04903461394191       -5.45383380787696        5.36019325728429
N            3.18645294238361        0.88839805684741       -5.56066202097490
O            2.29971174362065        4.72798410308711        3.46110250806951
C           -4.65872160361638       -4.89084839313663        4.24170747380042
N            6.13987165434035       -3.13728786758580       -8.48122437342029
O           -3.64951315824097        2.79067654483652        4.26410271072964
C           -3.88484120127296       -4.02053573948437        3.34924292826104
N           -0.74966756640405       -0.03830407945487        0.35037519279331
C           -3.55701502174700       -5.86507171871465        1.68648149741093
C           -2.31558476969951       -6.62687167163063        2.14964210202248
C           -3.40427346998314       -2.74890632388819        3.54650549435409
C           -3.55360490951346       -1.85198422193776        4.73054344363547
C           -4.66223972387947       -0.77139099870912        4.61618622876536
C           -5.98956377758774       -1.33622986131246        5.12877830157001
C           -4.86241888936871       -0.26207992649571        3.18843451655379
C           -4.27654390961184        0.41636340941826        5.51913521290217
C           -2.77065451501983        2.08558885448872        4.70810222260749
C           -1.31894612431396        2.52458312824004        4.82696558891913
C            1.24058084751588        4.17877088734583        3.17281958668558
C            1.04762497270206        3.54824539697810        1.78545152360733
C            2.36328040140622        5.11456743677010        0.45623399331201
C            3.58540630184800        5.17481923023129       -0.46603177133309
C            4.14700118743314        6.58958833985629       -0.65866077823436
C            5.23011588717038        6.59203565907928       -1.73538379828508
C            4.71795523058187        7.07534216750787        0.67215361182014
C            3.62369464047568        3.34645614170428       -2.02644314451181
C            3.43173418669115        2.82277296194309       -3.45641449862631
C            2.15763491576631        1.99396401122571       -3.62208501432733
C            2.01637317811229        1.59931429438694       -5.08902582334288
C            3.02961189627710       -0.19831360850184       -6.33459249810087
C            4.19740771314721       -0.67591243801419       -7.02723236503651
C            4.98751140150689       -1.18012381535809       -7.78332468871192
C            5.96532087132131       -1.70047823597569       -8.73477572170941
C            7.07876765463575       -3.80340950825590       -9.36058135172710
C            4.90328547054289       -3.89027499251470       -8.41338283364146
C            5.41738116487731       -1.36114254397126      -10.13931004368455
C            7.29234614290337       -0.95889779205053       -8.50480838004821
C            4.45556018281557        1.55027072619899       -5.35373945385351
C            4.62399536675229        1.96357871117011       -3.88924492143534
C            2.13872264899422        5.28403255947882       -2.46432760267233
C            0.87669185065644        2.02632465968356        1.81560860225174
C            1.22884633715729        1.35017817617859        0.47096737163181
C            0.69128511148654       -0.08781006489826        0.47313175608390
C           -1.11716467985921        0.55963514151421       -0.91590951331049
C           -0.62546414700268        2.00514802070833       -0.86799016326921
C            0.30162144220973        4.83914051264332        5.31024598882859
C            0.12710690511304        3.81850314596497        6.42765799313146
C           -1.22475177397254        3.13805412336441        6.24447646249851
C           -2.68176258310767       -2.41033310275773        2.36425086506493
C           -2.77491470742572       -3.51762803372385        1.48712378681364
C           -2.20395617899350       -3.48281886026694        0.21975054525882
C           -1.54809307077698       -2.33369048390912       -0.16390765968213
C           -1.42343145050243       -1.24187400006806        0.70765059631724
C           -1.96824717663322       -1.28203373744380        1.97362707119944
F            3.38588517520944        3.91396712212224       -4.33377204263696
H           -8.66654930829662       -5.34641536157063        3.50816420929971
H           -8.31463019124483       -3.70539130799407        4.01905671162433
H           -8.77330311797103       -4.01716765205225        2.34417747918725
H           -6.30148369067450       -3.62729262187134        2.61116680874240
H           -7.00014380195443       -7.17556069171305        2.43129421306319
H           -8.26762652876976       -6.49590128785145        1.37633727703843
H           -6.73767453947098       -7.06826682549965        0.66849544578536
H           -6.60419983494618       -7.46073669793558        6.25311124258297
H           -4.29278225386079       -6.83827027381904        6.98802789990534
H           -3.03266455047737       -5.17900674279143        5.60485531694623
H           -4.45279821095522       -6.32817678786083        2.09891874198347
H           -3.63465765474563       -5.88542294734365        0.59825953504849
H           -2.33639929334545       -7.64190116269265        1.76388530024026
H           -1.41532867756594       -6.13134137303297        1.79265747770293
H           -2.28255565007792       -6.66651007375622        3.23645496270733
H           -3.75443844514562       -2.45163851332313        5.62009776374525
H           -2.59934508431075       -1.34179810372070        4.87220501143284
H           -6.29449823349930       -2.17241251762884        4.50337656277072
H           -5.89427213695511       -1.68963927877239        6.15338179532314
H           -6.76789397639971       -0.57626836661865        5.09531572328022
H           -3.97402486207202        0.23919624772587        2.81557757516639
H           -5.09664003301025       -1.08221827464675        2.51502995327037
H           -5.68462689926487        0.45074591863323        3.16428814967137
H           -4.26815598342897        0.10329679333423        6.56561193348575
H           -4.98210721991726        1.24011629503078        5.38145629831244
H           -0.65137099674664        1.66103450364941        4.75340132082442
H           -1.75848246464990        4.12028363686199        3.64629452984636
H            0.17355769854734        4.03132567371508        1.33258074355176
H            2.93754735645448        3.23136677384394        0.89502082431373
H            4.37358679540743        4.53445310421769       -0.05870185527166
H            3.33320448856321        7.25944958731967       -0.94867037921964
H            4.82940584966957        6.30099162079192       -2.70243064023814
H            5.66045594197234        7.58544517598406       -1.82623468948347
H            6.02223639023621        5.89465044300850       -1.46994947335613
H            5.55637549046481        6.45118108640811        0.97736745814425
H            5.06390735081300        8.10148791395168        0.57728338339906
H            3.95658483132046        7.03467790993196        1.44952179998817
H            2.24312123900251        1.11640285641693       -2.98208531393497
H            1.27809237815168        2.55209494396417       -3.30752372402226
H            1.88929605684010        2.50937647848009       -5.69267005924624
H            1.15037513107441        0.94984676717389       -5.23973764469716
H            7.27680404183469       -4.79184053944323       -8.94674693716456
H            6.69380692522203       -3.93528224942288      -10.38324405697722
H            8.01595675586537       -3.25743643514358       -9.39853422339308
H            4.18046053140460       -3.36804797080197       -7.78967344899158
H            4.45074576627685       -4.06850409873050       -9.40147498860429
H            5.11833018788490       -4.85778134254229       -7.95950393113780
H            4.44545410843611       -1.82477884783712      -10.29310390769256
H            5.30243671355953       -0.28499119693599      -10.23659250619254
H            6.10693495282029       -1.71063833375188      -10.90308791438958
H            7.77094850537668       -1.33327693978852       -7.60475967980736
H            7.96026770083672       -1.09068418783116       -9.35079875716280
H            7.09781880960046        0.10391762096871       -8.38755164619575
H            5.25697714835882        0.86992244579366       -5.64411376058754
H            4.50529007618884        2.44778411567896       -5.98194168882197
H            5.54717600466852        2.53241061916611       -3.77823959604087
H            4.67471135116368        1.09568349699785       -3.23369140956755
H            1.38335757832176        4.59153505829268       -2.82759051601035
H            1.65577038878814        5.97853726697446       -1.77990459030904
H            2.55018007560545        5.84149420614961       -3.30522926007630
H            1.53397833782648        1.59977119053404        2.57394749399488
H           -0.15575009812101        1.79381042803491        2.07240139617698
H            2.31579110613370        1.31697009790108        0.33523407759737
H            0.95380760619020       -0.57766121597748        1.41099681751834
H            1.15365528244804       -0.64981346003085       -0.35906556521786
H           -0.65573025701584        0.04720109576388       -1.77910182439587
H           -2.20188342312110        0.53566045730652       -1.02424990601821
H           -1.14768032625707        2.53546453934556       -0.06361239016675
H           -0.80950747210985        2.51474964205710       -1.81532707130027
H            1.27712095590497        5.32323709416739        5.34499655869595
H           -0.48314854142705        5.60139991525508        5.36015521392748
H            0.17524926188386        4.31522341762192        7.39514969811208
H            0.93042452694576        3.08286698046203        6.37137322140741
H           -2.02136228873108        3.87774839364296        6.36276470674747
H           -1.36954084144349        2.35144060686250        6.98304733767220
H           -2.27650476768092       -4.32207544653739       -0.45517198041729
H           -1.11346322380683       -2.27415295361111       -1.15119812825991
H           -1.83830721117444       -0.43623675489095        2.63065755749723
