151
 energy: -221.326892346537 gnorm: 0.005205730272 xtb: 6.7.1 (edcfbbe)
C           -6.03388836208487       -5.87908513783414        3.79915460942358
N           -3.83820827267175       -7.28052960062989        2.89548227238585
O           -6.05522717408240       -5.90999400828473        1.33578259511353
C           -5.35657767239413       -5.45792559379438        2.49515158433209
N           -3.42361426843395       -3.77923590745240        0.04467958915190
O           -1.73678682142612        0.35683592094071        3.63031449325864
C           -7.34894473442340       -5.36418231768385        1.18735830408623
N           -0.51298643871695        3.60330529128713        2.94724320894268
O            0.12321343129397        0.58935437941130       -5.25561125107867
C           -3.96210589483923       -6.04795328881167        2.42086520315553
N            0.64973973500774        4.32422922057758        3.23979349611742
O            4.08470535009867        2.96519957025674       -2.00531755791642
C           -2.65820309020994       -7.86940555234209        2.89075071378958
N            2.64326982420965        4.34428737341602        0.17887733306393
O            2.20474592178086        6.36281518517710       -0.74289041341152
C           -1.50523737926946       -7.24868332976808        2.43326031616051
N            4.27941469188496        5.13101658524085       -2.53474224466661
O            0.15779509915296        3.50277007415394       -1.64442983602890
C           -1.62402501550334       -5.96614214597775        1.93445313872641
N            2.18267981362278        1.29940901536431       -4.60656254164099
O            2.69768142538559        5.02806687092598        2.66984014008217
C           -2.87277881827444       -5.34002367756964        1.90098330473940
N            0.87764574251566       -3.82297886361913       -2.69201275586559
O           -2.94124495829173        2.22889803990937        3.34284726414602
C           -2.91131794238307       -3.99613144452065        1.30549380015360
N           -1.30182755449068        1.24382825440218       -0.84506696134850
C           -3.98276551918556       -4.78844951960011       -0.82013231779414
C           -2.89689005500672       -5.50421211140528       -1.62249355850195
C           -2.26967275584237       -2.86451661748855        1.75850247805458
C           -1.66940523003865       -2.61951589499503        3.10365621643161
C           -2.60386004698462       -1.87488847391370        4.08879456115277
C           -1.91833241623103       -1.80040528929147        5.45525336203957
C           -3.93755912493811       -2.60830176608037        4.22107078969225
C           -2.91904480262432       -0.45468808226461        3.59818589110949
C           -1.88486012182888        1.66176600118433        3.51526455161386
C           -0.56068128247888        2.37055368225361        3.73104726979226
C            1.63319914532205        4.51155178048449        2.34491449917654
C            1.38662269595865        4.15087763005760        0.87003051283547
C            2.96999290955353        5.43162193336741       -0.52040098457394
C            4.39459281896035        5.38652954539300       -1.09414069824062
C            5.19912042626194        6.63753527654257       -0.72282089966276
C            6.64991582640939        6.49011759528833       -1.17884347765550
C            5.15009707274530        6.81794756482195        0.79475711405168
C            4.13933452262568        3.84364907950415       -2.87071364806581
C            4.14526106243432        3.42492897504584       -4.35363230623789
C            2.82746873539688        3.62454907783980       -5.10614813948724
C            1.75653697845804        2.68406498193294       -4.57438978424395
C            1.26167140474124        0.34547254435587       -4.84589919686480
C            1.65427616572026       -1.00337338785901       -4.52950340272095
C            1.75010335227780       -2.14213396029280       -4.14707407301560
C            2.00130127731770       -3.46185012170111       -3.57904078859091
C            0.19236750549762       -2.70509099166653       -2.07971422898480
C            1.19260201140656       -4.83899695896453       -1.70790595610467
C            2.06228701288032       -4.48594239021218       -4.72373762547126
C            3.37141933516026       -3.37519902783148       -2.87203850643674
C            3.46808596086601        1.00156142976052       -4.01144842196771
C            4.55582242323329        1.95637687931381       -4.50289653205720
C            4.07584983924030        6.28054667666058       -3.38771283037249
C            0.87523707222564        2.73616418252464        0.59294985670119
C            0.80136486369256        2.46259410899699       -0.91918908747061
C            0.10497382410967        1.12257625094429       -1.17930556506962
C           -1.92530682052783        2.23953018905093       -1.69315027844626
C           -1.23853595819180        3.57337796165527       -1.40044573196480
C            0.83695180430657        4.69315183006251        4.63720347245290
C            0.85303536970872        3.43263458141021        5.49853669601691
C           -0.42305232005828        2.63343747060256        5.24433411333140
C           -2.33538180790298       -1.91516631199176        0.69748022437693
C           -3.07715178416389       -2.51608566023487       -0.34939975112828
C           -3.33187260574039       -1.82447202139711       -1.52788924301027
C           -2.77803907489350       -0.57114374435276       -1.68292798381691
C           -1.96268761373512       -0.00353466032010       -0.69243442983729
C           -1.75950428374975       -0.66249602970159        0.50483063992489
F            5.13709950312240        4.18729695288372       -5.00349795073394
H           -7.00333000951472       -5.40160260993247        3.90540819646067
H           -6.15061019734001       -6.95862635994732        3.80271170700641
H           -5.40875219096063       -5.59047051908318        4.63872730721652
H           -5.28756149496112       -4.35992309065085        2.44364739403204
H           -7.65279267341013       -5.58791522896455        0.16712906995903
H           -8.05783064040463       -5.81504173127238        1.88575577515737
H           -7.33248860994927       -4.27783582842855        1.33622935570289
H           -2.64020987861598       -8.87743590610005        3.28147905743792
H           -0.55471389927428       -7.75569772017609        2.46228271875205
H           -0.76153943642969       -5.43572088185401        1.55597923299550
H           -4.53490651721655       -5.50837892755938       -0.21171302699174
H           -4.68612123334172       -4.29996252101909       -1.49848388446342
H           -2.22598701639488       -6.04030018921843       -0.95318248968648
H           -3.35090954766010       -6.21917582577360       -2.30178605926505
H           -2.31556496261456       -4.78890357689907       -2.20306873257282
H           -1.39892227317169       -3.57449382132445        3.55877106502949
H           -0.76312746952108       -2.02331774415637        2.98377167296872
H           -0.95199028888537       -1.31165627201555        5.36785934620659
H           -2.53055293562932       -1.23708535702696        6.15598484611751
H           -1.76995021526040       -2.79993978597830        5.85423405692411
H           -3.76835507508818       -3.65639692655021        4.45158726756404
H           -4.53963871578355       -2.16905299577585        5.01171321635002
H           -4.49312635954447       -2.54028234823804        3.28983753689573
H           -3.67237222136970        0.01426449709229        4.23978977860356
H           -3.30375677509789       -0.46847426340307        2.57516406097847
H            0.25285033624714        1.72226298672971        3.39322961126028
H           -1.33854954061005        4.16735803131378        3.15365732805181
H            0.68918911615476        4.89298704041922        0.46344099837618
H            3.33764523965772        3.62331100562709        0.31073343125580
H            4.91312689994609        4.51779945462746       -0.67583958011321
H            4.73894250487360        7.51458283657695       -1.18248577674876
H            6.71850598037237        6.24208097279320       -2.23435398322998
H            7.19149450347003        7.41519664548660       -1.00407642176776
H            7.13446153805373        5.69650479902446       -0.61439576336193
H            4.12925034077338        6.96954244163669        1.13869954845824
H            5.54304885494976        5.93969499529746        1.30179160107545
H            5.74298632620780        7.68072094453370        1.08492800728602
H            2.45921529321739        4.64476162428746       -5.01927735578043
H            3.02470264656302        3.41463674441244       -6.15975540974794
H            0.85290514955290        2.75852419025521       -5.18411486671602
H            1.49672363142972        2.96827972802516       -3.54678373963918
H           -0.27246949167524       -2.08608458379109       -2.84691983510828
H           -0.59594544402155       -3.08759576085085       -1.43471157896765
H            0.84757425288249       -2.06265726547798       -1.47042779645191
H            1.80890645998573       -4.46362931085687       -0.87851099000636
H            0.25176526759655       -5.20351364149526       -1.29665563184713
H            1.69978945293316       -5.67392917886261       -2.18312346760584
H            1.12960523597138       -4.47044405476112       -5.27957252725773
H            2.88246329010637       -4.24953442214965       -5.39573312115075
H            2.21206343397017       -5.48425926011563       -4.32408334596134
H            3.66864089160990       -4.34708338665222       -2.49002079190454
H            4.12169741280439       -3.03931127961290       -3.58277963472171
H            3.33052503055072       -2.66162169367749       -2.05190253279810
H            3.39636678104199        1.08023463999304       -2.92163578487124
H            3.74156043584449       -0.02180609412299       -4.27355674067955
H            4.76475639606665        1.78464019130428       -5.55960208759886
H            5.46580592816646        1.77132285084816       -3.93148246379452
H            3.86111284940850        5.98351349609689       -4.40621376983296
H            3.23636208572318        6.85724978453130       -2.99344421628247
H            4.96862990187423        6.90323319523477       -3.40015447608212
H            1.55796902058718        2.00742866701595        1.02972633103306
H           -0.11473400189802        2.60649683958654        1.02355983441813
H            1.81667276077864        2.43854331336719       -1.33194224662895
H            0.55618944515274        0.34378417384687       -0.56398276800812
H            0.23452993131153        0.84314884610957       -2.24309315715693
H           -1.81783968258733        2.00563331675125       -2.76741729973263
H           -2.98449205487177        2.30743878497415       -1.43967267534342
H           -1.43031087738872        3.85593240415323       -0.35828947639560
H           -1.60464979963197        4.35866458589756       -2.06241278859174
H            1.77644203946720        5.24020059936432        4.70794960473612
H            0.01034074466330        5.34800113450271        4.93110886714747
H            0.92516333639474        3.70697368353307        6.54973784731987
H            1.72448951122752        2.83127283399586        5.23518832472234
H           -1.29373856577295        3.20091599553749        5.58290215050451
H           -0.39881371821791        1.68476199175114        5.77921851643506
H           -3.92407607148996       -2.25206207271373       -2.32152777403363
H           -2.94653511219373       -0.03250046755634       -2.60326583788510
H           -1.13710919275958       -0.20887343561482        1.25993458722466
