151
 energy: -221.336480316390 gnorm: 0.008595859929 xtb: 6.7.1 (edcfbbe)
C           -6.89212442699983       -4.92852285741198        2.99189715498289
N           -4.81443956402013       -6.82569202049945        3.36586477883673
O           -6.10398006225118       -5.92831257335643        0.89157374669280
C           -5.74907430600054       -5.08647868392955        1.98882249872278
N           -3.01441741285045       -4.01009806125813        0.33860456494240
O           -1.89804910510323        0.42513477625189        3.83739449837189
C           -6.97790440734150       -5.33880614606940       -0.04602821325297
N           -0.18638645576089        3.45860234392916        3.17815353783549
O           -0.54450437398643        0.80795103853819       -4.46989135456083
C           -4.55116593231050       -5.74482470930770        2.64503947974051
N            1.00479706753934        4.06998719927360        3.57649758193680
O            4.18543987940860        2.96305613051839       -1.93082722937336
C           -3.82625344284054       -7.46611879639251        3.96358360716209
N            2.96456643466046        4.32253813289407        0.49875542145026
O            2.14119959703003        6.17596686855694       -0.49573741705635
C           -2.50430301604605       -7.05474089190819        3.89327005155738
N            3.98789392484237        5.12020627781028       -2.51768619977828
O            0.60222276922189        3.29120411449533       -1.26443831891925
C           -2.22002421375594       -5.92776358562230        3.14582206663291
N            1.48694483039774        1.39225983945276       -5.30149693436760
O            3.08968849026395        4.74999441012455        3.08865059546159
C           -3.24937461763844       -5.25041673429259        2.49020670198966
N            2.44067402629576       -3.97089371043509       -4.54085239684759
O           -2.74550797914258        2.39944642110989        3.18887696338713
C           -2.89361246294138       -4.05974974804542        1.71021205033934
N           -0.69644377797788        0.93275887505116       -0.51642587653564
C           -3.37427100207846       -5.10835342490591       -0.52397929056260
C           -2.14070156295567       -5.88079259675384       -0.98482334570141
C           -2.31401046534415       -2.90264806595804        2.18192692648550
C           -2.05279815351523       -2.52976685276830        3.60547966709039
C           -3.13254625068695       -1.62781616343178        4.25083917656747
C           -2.82705587903911       -1.48541814425281        5.74461562177450
C           -4.51674994113057       -2.25036131520527        4.07225809241070
C           -3.15238786418150       -0.23846419954823        3.60394033804215
C           -1.82910042307746        1.71845671509779        3.60001062045833
C           -0.46526248667897        2.27085031347168        3.97823933382179
C            2.02144690310722        4.27246753934446        2.72025852320055
C            1.77376708585184        3.96303093643811        1.23749898267929
C            3.04507823179857        5.36568834031749       -0.32927341432563
C            4.35551971342677        5.44150736288266       -1.12972843873425
C            5.06631070609452        6.78075996217587       -0.91716177621020
C            6.40616977838629        6.81061112121849       -1.64982973618219
C            5.29285704446884        6.97051911761820        0.58364091234640
C            3.86507698358273        3.81235935403659       -2.77203313325430
C            3.29834369010613        3.29844370187086       -4.11745666089597
C            1.78806655533106        3.54241106851588       -4.19667144980589
C            1.16115418429706        2.79824674073258       -5.38087806288749
C            0.62882445561393        0.52782044643414       -4.72835629900169
C            1.14943510444819       -0.78054741219102       -4.42280607937560
C            1.41958456580252       -1.88233844285692       -4.01658132372516
C            1.80824381692671       -3.18253817947905       -3.47618091847526
C            2.75736555713939       -5.33918156794566       -4.18356764575035
C            3.58585402580466       -3.33002851842134       -5.15515020905306
C            2.70880661631234       -2.90672147475118       -2.25132891973713
C            0.51389898090891       -3.86585715227711       -3.00676271579653
C            2.90515428369052        1.15378988962393       -5.41776696872497
C            3.63004658326859        1.80696252820193       -4.24273966280090
C            3.48298975592134        6.19839697521901       -3.33885002526368
C            1.40504368498505        2.50715422784538        0.93293938987325
C            1.32059895837999        2.26775120571346       -0.58482947553976
C            0.70469171354730        0.89609523600451       -0.87924029352090
C           -1.39877804755145        1.90899886471452       -1.33025072060841
C           -0.79400010812853        3.27261797110422       -1.00892282272846
C            1.12004169176117        4.42972182498722        4.98427387758830
C            0.88086892699180        3.20190751444309        5.85898043053285
C           -0.45952959667784        2.56931485505319        5.49047289441581
C           -2.03457553397594       -2.10293679787087        1.03705409733262
C           -2.49005745804241       -2.82447315650964       -0.09483517390073
C           -2.37748772109852       -2.29863127789590       -1.37859431191379
C           -1.79532344657818       -1.05753962984869       -1.52788900683328
C           -1.31020823957412       -0.35020806826800       -0.41750000940494
C           -1.41683398388860       -0.86916892391357        0.85600783803274
F            3.92490533885559        3.95852513989790       -5.19003224501967
H           -6.54299795852347       -4.37287195549954        3.85593584655470
H           -7.72433091799943       -4.39136104537084        2.54587662113119
H           -7.22033079858222       -5.91394797552490        3.30819660699258
H           -5.45423327522539       -4.09957481374621        1.59658304210455
H           -7.12422487510923       -6.08464102856122       -0.82251936366585
H           -7.94207629190370       -5.08451954808122        0.39897486256506
H           -6.53205699317444       -4.43614619626007       -0.47891253572828
H           -4.11756987432369       -8.34316149678016        4.52484962933518
H           -1.72452563346723       -7.59828566788763        4.40110231545691
H           -1.20651081884174       -5.56691744993660        3.04777819859918
H           -4.05077866581206       -5.77623824524993        0.01190790547487
H           -3.90182068161486       -4.70158171616213       -1.39057996893300
H           -1.46971031862643       -5.22319317033987       -1.53041090630698
H           -1.61103969448240       -6.29093029120812       -0.12757395324797
H           -2.44035612233144       -6.69777652065802       -1.63449080600507
H           -1.98936369779238       -3.43911413983647        4.20412571689838
H           -1.09675658735664       -2.00776888712438        3.66490809165796
H           -1.81690749158551       -1.10973479962831        5.89324330715006
H           -3.52572588899760       -0.79261789404364        6.21106762302250
H           -2.91944487482946       -2.44851842454846        6.23847208062038
H           -4.80172093779422       -2.25675796250151        3.02375941254612
H           -4.50516313154568       -3.27625182047451        4.43127662492136
H           -5.26286580297337       -1.69223861504569        4.63060530769777
H           -3.95194860493443        0.37840788900934        4.02671492689930
H           -3.31062196057296       -0.30825078868137        2.52395799102029
H            0.30114359903213        1.52124991800436        3.75510098873878
H           -0.97276088997804        4.10529404067198        3.24837293182144
H            0.98080956547479        4.63486629941225        0.88795818502218
H            3.74946109316909        3.69550953342296        0.58258175921752
H            5.02461030798542        4.63970987028846       -0.80470422951631
H            4.41757322082187        7.58885758882026       -1.26319065174314
H            6.84440468053575        7.80242419755198       -1.58113057059905
H            7.09129444308901        6.10067335153698       -1.19376849664419
H            6.30011467349056        6.54955071319011       -2.69866680792556
H            5.91149208450272        6.17082330641605        0.98450816602703
H            5.79099046724286        7.91821131447957        0.76568969427618
H            4.34832119499634        6.96759750957128        1.12375079183102
H            1.34180651658617        3.19713524549774       -3.26368022230237
H            1.57315979300190        4.60297005017182       -4.29096843320337
H            1.55284033986502        3.18868698388256       -6.32495361298482
H            0.07525975996947        2.90960595400159       -5.36048337168464
H            3.12476672361438       -5.83932724391752       -5.07894325265786
H            3.53300870694566       -5.41804560720092       -3.40744935805850
H            1.86317601465201       -5.85864699751278       -3.85195755551920
H            3.33927522511038       -2.29869426954393       -5.39854948237849
H            4.48418003643237       -3.34174861048448       -4.51971893954033
H            3.81612242569583       -3.85694973437890       -6.08069492123220
H            2.97687901104410       -3.84543091362976       -1.76951856865160
H            3.61803396804281       -2.38081839209948       -2.54485724078346
H            2.16495665590275       -2.28857782845832       -1.53766576116765
H           -0.08680594647550       -3.15001653111325       -2.44817777202569
H           -0.05447659024429       -4.20798459831838       -3.86707684825554
H            0.74117134791591       -4.70719588847508       -2.35802620444916
H            3.10090372748301        0.08233188929523       -5.42313575875887
H            3.24888027566163        1.58848639323116       -6.36035612479962
H            4.70971683032866        1.69454723889670       -4.34943188839603
H            3.32888603966021        1.32315486614841       -3.31211583249732
H            3.33842891608632        5.87246344626217       -4.36208691507886
H            2.54111053475088        6.56309004357791       -2.92006239502490
H            4.20385198070338        7.01229776017775       -3.34457656589767
H            2.16925234751176        1.84271202597744        1.33641000687472
H            0.44263686225655        2.27263968706961        1.38088826550958
H            2.32693966245226        2.31501831360820       -1.01636903096350
H            1.20924821040931        0.13010702360144       -0.29026615126196
H            0.84023179773998        0.65748245815434       -1.95075717562658
H           -1.30901028828294        1.70718421513172       -2.41263344280319
H           -2.45577845939151        1.90007876049018       -1.05279634632663
H           -0.99313444134703        3.51666581365252        0.04096913692355
H           -1.21275717711513        4.05126683247845       -1.64857238416144
H            2.11920821971569        4.84103071758137        5.13018888837715
H            0.37591446386381        5.20329047965136        5.20392854249742
H            0.88510839579988        3.49833924432235        6.90658079564049
H            1.68425551371559        2.48127157419304        5.69861296653608
H           -1.27588113382660        3.25878435557254        5.72094859649894
H           -0.61786713844387        1.64545664979751        6.04562091210559
H           -2.73240569929151       -2.83919740930425       -2.24316420757188
H           -1.69461003835180       -0.62900065692144       -2.51497042753136
H           -1.01318416741639       -0.30754391765651        1.68225979707903
