151
 energy: -221.322053571496 gnorm: 0.002853127305 xtb: 6.7.1 (edcfbbe)
C           -7.26289138327008       -5.09610734193980        4.03038217854204
N           -5.06071477256238       -6.87708392385952        3.97105970995877
O           -6.75464925243521       -5.97714504686807        1.78320277231727
C           -6.29411553074845       -5.14905846821540        2.85013908459728
N           -4.00799067852103       -3.68795158985424        0.92148193013220
O           -2.11054100983087        0.26871624179705        4.63267846548413
C           -7.93367731564126       -5.53764771661375        1.14451478173800
N           -0.42987352404489        3.33199051260320        3.91372593780545
O            2.70230008690761       -1.98250123602052       -3.76057958782366
C           -4.96952629076705       -5.75793098532899        3.26666359669788
N            0.87710442227773        3.80510499897976        4.07219255611956
O            4.33761710731784        3.54011548659416       -1.75856592797947
C           -3.96031063579853       -7.50060972462231        4.34972950013111
N            2.01334364356723        4.54101174198006        0.67011390174903
O            1.05349097754521        6.51630161856958        0.14447300768859
C           -2.68818507210143       -7.04397225743613        4.04144227476503
N            2.57609129650743        4.86951763160222       -2.19960933391449
O           -1.12379150303557        4.01085560722544       -0.28204722169344
C           -2.58239749607142       -5.87312037424047        3.31505082771395
N            3.07844565152969        0.10906971574274       -4.54855955632664
O            2.82686224882537        4.45407602753923        3.17114314267022
C           -3.73541499047298       -5.19764015767471        2.90920448909229
N            5.99986929078689       -4.18833539529894       -6.89464356039046
O           -2.98410228466907        2.31011973258078        4.31087082291648
C           -3.56999987298141       -3.92102723896947        2.20774081524458
N           -2.06631622589271        1.45428560516857        0.31777788412782
C           -4.51875416720131       -4.67257448985537        0.00059575674677
C           -3.46536228201853       -5.08564097529259       -1.02473553501878
C           -2.92416655710698       -2.80770285298553        2.70075790986445
C           -2.36211389598977       -2.60419760289534        4.07019307410040
C           -3.27861846764087       -1.81799689853714        5.03939177157566
C           -2.67024269148660       -1.88345914623238        6.44289610024109
C           -4.68006583109036       -2.42754052068103        5.05783609205403
C           -3.40606129149835       -0.34797827579473        4.61968928084720
C           -2.03530606801561        1.57509885813436        4.46777856868916
C           -0.59104511914886        2.03713554310841        4.56831464801976
C            1.65627870904964        4.11566044739230        3.02372172861756
C            1.02029567449308        4.11142257412860        1.63198574065161
C            1.93057815339021        5.68099094767623       -0.02340479119073
C            2.98988448070108        5.78432082153408       -1.13246664107971
C            3.18577754789901        7.22577174082506       -1.62322798390058
C            4.11983626548122        7.26765751023609       -2.82981038749925
C            3.76223129420184        8.06054980019132       -0.48088411981655
C            3.35147299869886        3.80821286327105       -2.44837407689854
C            2.99434601276110        2.82161968547115       -3.57508470194457
C            2.10368608403406        1.71982612698993       -2.98952297241510
C            1.83862633526407        0.62608883805918       -4.02125677986840
C            3.40301245337833       -1.18511620741480       -4.38786859143986
C            4.58121792339121       -1.63393740998708       -5.08149121864926
C            5.42740155290318       -2.23195320623538       -5.69620867422718
C            6.47298762752409       -2.85251493180879       -6.50312909587319
C            6.91519855658483       -4.93830203300865       -7.73005172502288
C            4.66508413709611       -4.21253458579422       -7.45684816275705
C            6.77327594452971       -1.90390935138914       -7.68376978565167
C            7.72000503377236       -2.98240251358293       -5.61183095469036
C            3.91440779573418        1.10469167826400       -5.17399718997351
C            4.26532974037873        2.20911058940738       -4.17244620967610
C            1.33184078581681        5.20272982880084       -2.86588796801968
C            0.44020328517207        2.76969335797353        1.17588778721341
C           -0.22720778098860        2.91533648870912       -0.20241505128283
C           -0.94317305462997        1.61234967306665       -0.58101518108823
C           -3.01596028321021        2.53356822043316        0.13196548520196
C           -2.30188370337570        3.83686168644411        0.48874405197887
C            1.36531792920153        3.92512972172712        5.43971000569006
C            1.24598719686419        2.58362630754997        6.15857965358049
C           -0.19202457100697        2.08043970783887        6.05559151496988
C           -2.93977025365792       -1.84336835779061        1.65419766564974
C           -3.63832064706087       -2.42079599828484        0.56582086512854
C           -3.86745495694722       -1.70035074381369       -0.60252710884927
C           -3.37033343851614       -0.41779743826141       -0.68422044164790
C           -2.62495710796126        0.14167766513888        0.36459467932284
C           -2.39921023587969       -0.56728481066526        1.52318669849868
F            2.31855469241027        3.45870462947790       -4.61993112531981
H           -8.19754084559786       -4.62664788653927        3.73733496085086
H           -7.45257364455295       -6.10573482297248        4.38121363198326
H           -6.81863156608930       -4.51623037334525        4.83324134413172
H           -6.13119626669133       -4.12970454318739        2.46223099976135
H           -8.81838573784797       -5.71640328149539        1.76091685028754
H           -7.87082688447646       -4.47262779818070        0.89665558467750
H           -8.00851921917248       -6.12338105548075        0.23055075263131
H           -4.11407793432090       -8.40303663548872        4.92513998966536
H           -1.81270347787666       -7.58587869706238        4.35996955847473
H           -1.61543077691684       -5.47568658059231        3.04348295877664
H           -4.84252185560552       -5.54527528265981        0.56790403992079
H           -5.39025309451574       -4.25533635162795       -0.51119066766609
H           -3.20069933212432       -4.25044986963080       -1.66654527352860
H           -2.56476147219605       -5.42766552654012       -0.52323758088290
H           -3.85049895714616       -5.89300714396460       -1.63940914824868
H           -2.16842887172096       -3.57677192156237        4.52454730139611
H           -1.41578119608499       -2.06710217644000        3.98880466341179
H           -2.65420973482185       -2.91019221756375        6.79801917552590
H           -1.65271677102312       -1.50270572346511        6.43187147763326
H           -3.25623206153393       -1.28789443406780        7.13883574198667
H           -5.16434909924101       -2.30538862555872        4.09247129093562
H           -4.61656536879887       -3.48991988318207        5.27895149731472
H           -5.29461634892411       -1.94888173236743        5.81597860404848
H           -4.05765731919535        0.19816462308575        5.30950373917939
H           -3.82441825735878       -0.25926102605558        3.61288375379260
H            0.04657632286144        1.31475804934474        4.04766874232226
H           -1.10409560604437        3.99520418418163        4.29801960256162
H            0.23303862368202        4.87473487253862        1.61914666938580
H            2.81666546738543        3.94144194138712        0.54806037574259
H            3.94363509290668        5.40316393831125       -0.75307845570284
H            2.20999461161851        7.63893268493972       -1.89324455828541
H            4.25403656340467        8.29539195211686       -3.15552940070654
H            5.09221921908695        6.85765511796028       -2.56433214736967
H            3.72329454634460        6.69324575461763       -3.66272773918244
H            3.08531722745418        8.05964837064844        0.36968022040447
H            4.72144301491223        7.65869085291048       -0.16166703431589
H            3.90572359507679        9.08722925102824       -0.80534855042924
H            2.62126041276917        1.30399927742136       -2.12421925360416
H            1.15099385308230        2.13365908886126       -2.66288062885728
H            1.25083594194539        1.03865154630291       -4.84838987970053
H            1.29388273256402       -0.20228521855163       -3.56437131677058
H            7.90263454089641       -4.95792521767773       -7.28098688713101
H            6.54828102336623       -5.96286460517880       -7.78535573761792
H            6.99008337994703       -4.54719334916583       -8.75562337850484
H            4.59549087398755       -3.72853276552065       -8.44385014838555
H            4.36129585747900       -5.25275004142535       -7.56811755345324
H            3.97028268116053       -3.72376133972764       -6.77616650112961
H            7.08480149353900       -0.93555757032113       -7.30203907514160
H            7.57310071445571       -2.31048633950559       -8.29643781999282
H            5.88711738625129       -1.76404770311444       -8.29844685194192
H            7.89491499441901       -2.04556070644803       -5.08948986086478
H            7.56440712572635       -3.77007320912442       -4.88046185025735
H            8.59809287272225       -3.21085106464020       -6.20839069144971
H            4.82346870564964        0.63030709365420       -5.54373966952603
H            3.36821668239041        1.54328594801016       -6.01643601568421
H            4.83397083879965        2.99120189541354       -4.67576816723733
H            4.86673087796731        1.81666085793100       -3.35335277335793
H            0.72049916401615        5.78471045628992       -2.17914107231301
H            1.51198599315192        5.78706182542625       -3.76878326926953
H            0.77387508593258        4.31084094364131       -3.13472902752980
H            1.24033903790023        2.03397934489946        1.09298123885275
H           -0.30185594435580        2.41964944128326        1.88679922772934
H            0.53915223924173        3.15751961213842       -0.94403592435148
H           -0.26866817434468        0.76327251405689       -0.46276017750041
H           -1.26291205500037        1.66748978329205       -1.63861234680347
H           -3.38949668426947        2.59091604547569       -0.90620496110184
H           -3.85923222483959        2.38333633963111        0.80754382916843
H           -2.06497861547764        3.83307072599078        1.55909315551139
H           -2.92416434430304        4.70201464512891        0.25709466013043
H            2.40019640957071        4.26169429983464        5.38488715501826
H            0.76495206376962        4.68440239296966        5.95265862890538
H            1.53225670394856        2.70558793254971        7.20204405764828
H            1.92184994968030        1.86383784412648        5.69505827011229
H           -0.86601878476588        2.75707189849134        6.58659722815031
H           -0.28660525627233        1.08564211786469        6.48838206479579
H           -4.42481099833033       -2.12258952747432       -1.42460860517561
H           -3.54480613639925        0.16549805859619       -1.57673006262494
H           -1.79910569559728       -0.12391170046618        2.29960192456676
