151
 energy: -221.312547725197 gnorm: 0.004994162784 xtb: 6.7.1 (edcfbbe)
C           -5.85235272147785       -5.45441509233855        4.13819969227082
N           -4.26847265565655       -7.16844573657404        2.60970160968162
O           -6.53053925000962       -5.41101308493979        1.77191257615303
C           -5.49141091786585       -5.09970105620178        2.69459202336705
N           -3.87776187772159       -3.50919274430304       -0.08706310760281
O           -0.58441431097152       -0.34207152272208        3.63247276294828
C           -7.76635513811516       -4.78295022280612        2.04306344642357
N            1.09620561806727        2.76363371266055        2.91371408905580
O            5.61856759674076       -1.33096828504454       -3.99110593431121
C           -4.28041937900523       -5.89397558197504        2.24465000821815
N            2.37473280313234        3.07350256104534        2.43674203022951
O            4.82220229000450        4.02949306008944       -2.80352906897327
C           -3.25529106851178       -7.93873087013328        2.25946293732258
N            2.36986829270105        4.57302279074349       -0.87445861303897
O            1.18103367304148        6.48762776943190       -1.13560966462804
C           -2.16847441936892       -7.47636967062308        1.53382250531761
N            3.00413668225149        5.11930415783194       -3.56041096082771
O           -1.12318377215401        4.30807998467625       -0.65274672430012
C           -2.17092776251853       -6.14863739670927        1.14946027694715
N            3.93121241630400        0.02600223085594       -4.67762793672864
O            3.91290826054185        3.66992526337523        0.92880870487488
C           -3.24609912050056       -5.32654676747235        1.49007499764618
N            2.90078533560983       -3.32999181182074       -0.05016676262889
O           -1.42153451808928        1.71433439877913        3.30799734425088
C           -3.19613067073253       -3.92797791990412        1.03344702969570
N           -1.85217945357772        1.62332152520429       -0.42216066428833
C           -4.72225586572290       -4.33133031210659       -0.92100988341676
C           -6.15257342152157       -3.80876723190517       -1.01514207594388
C           -2.38118637885808       -2.92287133007641        1.50476476644220
C           -1.38619261987675       -3.01606465720921        2.61891718240339
C           -1.78891912955718       -2.41798043287304        3.98625498731196
C           -0.72549702363140       -2.81572929208378        5.01450425546878
C           -3.14823948603855       -2.95587346529667        4.42394916381868
C           -1.88085388632379       -0.88806212707113        3.92200040243545
C           -0.48937121095058        0.94288822480007        3.34990495936883
C            0.95249509471316        1.31592818711536        3.03871609251011
C            2.72379828736304        3.53028596054963        1.23225795643994
C            1.64401205533170        3.96343501030951        0.22153641290192
C            2.13538143794287        5.77909910387538       -1.41100315824888
C            3.17673068844381        6.11266969550473       -2.49743248498104
C            3.13362807697670        7.56871288088819       -2.97669578674037
C            4.10699784492866        7.77232501398294       -4.13526314894708
C            3.50305840681742        8.48291307644213       -1.80932985111381
C            3.86777146134315        4.09666716625723       -3.58236757995729
C            3.63380640890023        2.88556688583792       -4.50348138656149
C            2.72689891148960        1.91108765397566       -3.73703548776508
C            2.61442671418940        0.58080680077671       -4.48463135755859
C            4.44966504463583       -0.95318825046708       -3.90973370594062
C            3.53205817521470       -1.55582369621449       -2.97578525470375
C            2.94185190966205       -2.11253601835088       -2.08434418264198
C            2.06361947251694       -2.66564474223566       -1.05558133606006
C            2.18503670043934       -4.01699038773193        1.00451987059724
C            3.93516272569443       -2.48400634399320        0.50713740134221
C            1.20725597963229       -1.50021709466461       -0.51042925001759
C            1.14932545791987       -3.69205122168766       -1.74628526966189
C            4.78086208000798        0.85404682930689       -5.50303945138411
C            4.97165579841767        2.23008966057035       -4.85944851122194
C            1.79915626796184        5.21718637117783       -4.36124358476759
C            0.80486963883502        2.79575392450142       -0.31966106291479
C           -0.33239744965823        3.28594907365216       -1.23525025655155
C           -1.21479274050526        2.09404805695634       -1.63366909942696
C           -2.75753748551830        2.63901518619769        0.08524886251399
C           -1.93990081247058        3.88397518418367        0.42340196501582
C            3.38229314081131        2.74290701137173        3.43616675923346
C            3.33561890073413        1.24846136176901        3.74437519670538
C            1.91437770684469        0.85592831437236        4.14157207527147
C           -2.57498748124147       -1.81507074211024        0.62860172540015
C           -3.50399917362024       -2.22463472638941       -0.36221317282128
C           -3.85200781893505       -1.38186500700062       -1.41348377160833
C           -3.31346656018950       -0.11421633590942       -1.44435890624755
C           -2.41377252717049        0.31137189584081       -0.45819948908304
C           -2.02602486760707       -0.53821387120251        0.55543712807697
F            3.00571155374112        3.24184338017710       -5.69781195753345
H           -6.60108250575204       -4.77166911670820        4.52938297555851
H           -6.22859669596797       -6.47260195551831        4.16982392539480
H           -4.96685765433401       -5.39159148396145        4.76181643806627
H           -5.26734760795072       -4.02182975050032        2.61822804781351
H           -7.63558448800397       -3.70425415012676        2.19260780798822
H           -8.38729077257397       -4.95933562888542        1.16731312545572
H           -8.25443258124796       -5.21073331256830        2.92182556228792
H           -3.32189886078613       -8.96828487805018        2.58299799656835
H           -1.35391030919837       -8.13293800832604        1.27591596132577
H           -1.35284034252729       -5.73794419614095        0.57604152853101
H           -4.28006276769942       -4.38752603800990       -1.92206701505285
H           -4.73972159150058       -5.33387584454321       -0.48818311553119
H           -6.56327578110489       -3.67933302714759       -0.02080823748018
H           -6.20132854955328       -2.85758777777948       -1.53523775470663
H           -6.76177744294914       -4.53140592618950       -1.54946094671779
H           -1.15382310324212       -4.07099231598264        2.78009134999084
H           -0.46989104895470       -2.51181068355241        2.30310543195656
H           -0.93400313863230       -2.35334108270735        5.97527840210441
H           -0.71715554033344       -3.89409279356189        5.14539232762809
H            0.26000246681001       -2.49779958343066        4.68653192455151
H           -3.13851626066889       -4.04212013277588        4.39084085850215
H           -3.37985036900205       -2.63953104856477        5.43826066274498
H           -3.93243364613008       -2.59529402502353        3.76261453259246
H           -2.21572811147433       -0.48373167343257        4.88214039221256
H           -2.58486925876601       -0.56332166789008        3.15015873531791
H            1.21676735786031        0.79284356072545        2.10037289991222
H            0.35723597097404        3.19059181750608        2.36631888491751
H            0.99015659831462        4.72962554927153        0.65504290889044
H            3.28474827464583        4.15736997996725       -1.02241282497028
H            4.16971599688323        5.92556409034884       -2.07171694179929
H            2.11862808514173        7.82337905267299       -3.29413522780112
H            4.10443950630531        8.81434164643851       -4.44204379747351
H            5.11506343752833        7.50568118019503       -3.82471589862040
H            3.83844154847628        7.16015088643685       -4.99107955328586
H            4.48967716637364        8.23240080952774       -1.42579296320922
H            3.50979067594105        9.51848052691329       -2.13559193411431
H            2.78011970779863        8.37959311466331       -1.00466140231218
H            3.17849014979925        1.74646091134437       -2.75709666715850
H            1.73643504755330        2.34552730353470       -3.60307765711051
H            2.16420861255099        0.75061973243788       -5.46688327157852
H            2.00093782331918       -0.12013637483790       -3.91866429013844
H            1.70417645310791       -3.33422399484766        1.72017896264406
H            1.43549135097995       -4.67922191356605        0.58405189781787
H            2.90527006520715       -4.62392257952733        1.55208140831986
H            3.54232194333612       -1.70346357334885        1.17783329691369
H            4.61915521654467       -3.10918533747153        1.08047125661865
H            4.49701833409394       -2.00834126787917       -0.29574092892934
H            0.62194389068572       -1.83795449001357        0.34017979906242
H            1.83594519706725       -0.66512817943289       -0.21051316952722
H            0.51821561570584       -1.15674898124906       -1.27765684600581
H            1.71215605604073       -4.59218354722137       -1.96777740569152
H            0.30109147745793       -3.92983600068587       -1.11432722685462
H            0.77459305967425       -3.27505168741694       -2.67692790032030
H            5.74596453191100        0.35621020420377       -5.60766770134577
H            4.31517720658454        0.96147930144850       -6.48659441544916
H            5.51257362563427        2.88406361520559       -5.54403538499042
H            5.55225119767951        2.14193408782869       -3.94039950252576
H            2.03745046965517        5.38246629283232       -5.41193907007034
H            1.19288382783838        4.31524299077294       -4.27982452855532
H            1.21123444922434        6.05317962068188       -3.99455084153747
H            1.45163454578017        2.13412003349785       -0.89743314540382
H            0.34985019504194        2.21713027724393        0.48160030786219
H            0.08897339453039        3.76849781147757       -2.12304071602136
H           -0.60212603490364        1.29292054277617       -2.04963982022508
H           -1.93995167248471        2.42836184169699       -2.39588792025882
H           -3.53870020421817        2.89531819864580       -0.65528203885979
H           -3.23743032239296        2.27001269690730        0.99457146290124
H           -1.33785251626966        3.67630592234125        1.31726996762902
H           -2.59224742513634        4.73245355300854        0.63477955282535
H            4.35193500225408        3.04181546276436        3.04002135947662
H            3.15068141835318        3.32000854302651        4.33342485699073
H            4.02958844877401        1.02768908545949        4.55261325085413
H            3.64745708521716        0.68774884270788        2.86106655011630
H            1.63953367364668        1.35657591650085        5.06898402809390
H            1.83248745119909       -0.22001648347709        4.28042544872905
H           -4.51961109713545       -1.70335861215600       -2.19651981045795
H           -3.58512758015439        0.56173506028282       -2.24162543920811
H           -1.29524426265483       -0.18626525372839        1.26277792760669
