151
 energy: -221.309994021439 gnorm: 0.006403118657 xtb: 6.7.1 (edcfbbe)
C           -8.77909174066071       -4.19376964196614        3.29001196040040
N           -7.29555061782879       -6.00750615584777        4.75189485272547
O           -7.20341782774038       -5.27438873776300        1.74485879938687
C           -7.32480516473095       -4.45278938498280        2.90285953588580
N           -4.11651362011535       -4.38930265048271        2.11031020780114
O           -3.16148553739771        0.72633355001950        4.72614993975998
C           -7.66848457767544       -4.68875191436146        0.54741823255826
N           -0.81179601068625        3.16743198844257        3.57861223856319
O            7.10593946699929        2.15910214150896       -7.22526591297646
C           -6.58257259480291       -5.16698135346527        4.01798056922017
N            0.41666151826588        3.68071038195078        4.00968642685066
O            5.44229513097766        2.60259974861910       -0.31832037995158
C           -6.71484506988801       -6.65585874563301        5.74617155617385
N            2.48348719425528        3.56587208937321        1.00896089633288
O            1.46562762206197        5.06712314880853       -0.33780848583287
C           -5.38211069108794       -6.48507982348713        6.08640686079680
N            4.08427794068376        3.75572404346992       -1.68986506052532
O           -0.09387423176575        2.34310604290244       -0.53221159691771
C           -4.62625351924038       -5.61470823811644        5.32188302202719
N            6.44675302030656        1.26482295836399       -5.25151892890908
O            2.58944711016845        4.08822903401702        3.60478207009081
C           -5.21674626353226       -4.94500721532469        4.25213211329321
N            4.84627247230145       -1.36171425551355      -10.19911043162491
O           -3.44074358431426        2.44364101116508        3.31464814783886
C           -4.40480310647264       -4.05375144030006        3.41559670194882
N           -1.23497433142015        0.10233699289972        0.69999944948657
C           -4.24861195216626       -5.70270572990216        1.53063910138509
C           -2.98397806781659       -6.52917596937651        1.75866148100159
C           -3.83671777194498       -2.84139832996724        3.73822800596688
C           -3.82662489647700       -2.16034547409559        5.07082533602810
C           -4.81652254144471       -0.99007016826785        5.27225959219849
C           -4.76796309842687       -0.56832670810878        6.74346666668381
C           -6.23471363900812       -1.42861687181926        4.90681529010181
C           -4.46384092616182        0.21602942667426        4.39257421964317
C           -2.76778795641985        1.82693577780783        4.11101176974293
C           -1.38272190208823        2.25702866191461        4.56804607048460
C            1.49996301891958        3.67914658564311        3.21420921994814
C            1.30052099202637        3.22483732011027        1.76743307390261
C            2.47244129082989        4.47869877021849        0.03143651565820
C            3.84644706798143        4.71409827107981       -0.60858389238371
C            3.98114525373727        6.17884786934258       -1.06031282884149
C            5.25110625649593        6.39551283146394       -1.87622770395310
C            3.98875719471158        7.06470525276277        0.18470526048003
C            4.98093344861522        2.78284217260376       -1.44319640693539
C            5.62403849674137        1.98987006894215       -2.60603811987757
C            6.42147968980538        2.96153839344810       -3.48449116409720
C            7.26620000124177        2.17688417801563       -4.48408458461772
C            6.51156731844299        1.28140506155625       -6.59596666161377
C            5.91549193492231        0.17334468102534       -7.29473158975360
C            5.62560167129283       -0.70969029522692       -8.06252583174965
C            5.34243289010854       -1.86456293543173       -8.91314325036053
C            4.73376133305490       -2.34182133069616      -11.25656792209267
C            3.63071697272340       -0.58142941626453      -10.09329225182112
C            6.70079079574618       -2.56464070194554       -9.09927361097246
C            4.37218792299445       -2.80886157725972       -8.17445019632822
C            5.70211291733733        0.31142827468535       -4.46309508226837
C            4.78506683135503        1.03726520113445       -3.46153393949198
C            3.15754142599544        3.79057749386131       -2.80317425967598
C            0.97780190960203        1.73719363138924        1.61256531210632
C            0.71149576591306        1.38603280369187        0.13683073855541
C            0.04852350830049        0.00612702598460        0.03635385016796
C           -2.09643872941080        1.04762962421842        0.00858419063879
C           -1.41518483456827        2.41368333661702       -0.02107369197009
C            0.44162040155197        4.32906913835879        5.31477047463119
C           -0.11153013343649        3.39206114601239        6.38385258670068
C           -1.49586802565870        2.90544719880313        5.96104375512073
C           -3.15974848827465       -2.39947593969852        2.56277659875095
C           -3.35002882477370       -3.39577378024705        1.57345787371801
C           -2.80651214180861       -3.26748869210821        0.30011482010735
C           -2.09772552524826       -2.12309060102832        0.00974454715525
C           -1.90220771929956       -1.12810787521844        0.97745209894881
C           -2.40361531090109       -1.27246486830739        2.25306790697737
F            6.56445447493506        1.17048555250948       -1.95166672128293
H           -9.27560642582617       -5.14194070690521        3.47330472160144
H           -8.81085313257026       -3.59488520414937        4.19464218508537
H           -9.29374750428606       -3.66010703743276        2.49578512747550
H           -6.81881092047922       -3.49359468857228        2.69785170454784
H           -8.75524894309554       -4.78334838118140        0.45182667802224
H           -7.38515517559723       -3.63096268223005        0.49128350769026
H           -7.18804122145130       -5.23592745204862       -0.26435879532062
H           -7.35604424618841       -7.33427181059426        6.29185096394756
H           -4.95020829396080       -7.02218955850546        6.91496906548302
H           -3.57869529298541       -5.45687976050524        5.53334803318260
H           -5.11371405956109       -6.19890206874686        1.97165417212338
H           -4.43409049884629       -5.58613439328586        0.46079957612141
H           -2.11893359617985       -6.01808444432393        1.34229077579626
H           -2.81861069694991       -6.67857442722277        2.82304674072632
H           -3.08467514612417       -7.49896193194936        1.28123158652142
H           -4.04957285265049       -2.90435693935852        5.83773617757215
H           -2.81905888026796       -1.77810617817878        5.24781663993186
H           -5.10122882894919       -1.38386565851249        7.37898209469969
H           -3.75457242688585       -0.29763939975598        7.02629553823549
H           -5.41582619564112        0.28767357948431        6.91536791364895
H           -6.95234029748926       -0.65638708182959        5.16526070460087
H           -6.30935146634585       -1.62206315424889        3.84067821047668
H           -6.49482279273003       -2.33959401245482        5.44146751885899
H           -5.19393406159303        1.02016262257079        4.53644067468798
H           -4.46636723794661       -0.05861927730147        3.33286859668533
H           -0.73700125010275        1.37486744572361        4.63132649462260
H           -1.47800454502210        3.92007411601817        3.39336202720828
H            0.49199394113106        3.82553391128144        1.33679837225537
H            3.35918100012940        3.16720330899039        1.31598211492281
H            4.61762338248924        4.51188835262994        0.14148126406877
H            3.10368587442287        6.44869981301518       -1.65535097056222
H            5.35259292747828        7.44830101967720       -2.12455501074010
H            6.12206439474063        6.09077596411215       -1.29967703537933
H            5.22992371625960        5.82528527999595       -2.79991523659120
H            3.07948212755752        6.91702071606094        0.76265141786647
H            4.84082923085742        6.82839364620303        0.81793176461266
H            4.04685013558945        8.11059641402800       -0.10234115432642
H            5.73794360337653        3.62168428880794       -4.01343923050261
H            7.07647400366351        3.56187439568439       -2.85281968596081
H            8.02419380948290        1.59862538361556       -3.94335229632520
H            7.76075279452695        2.85319144687932       -5.18281183975033
H            5.67828355124426       -2.84785241810973      -11.40995552909132
H            3.95239294692339       -3.08908016982073      -11.07586863092355
H            4.48390031032099       -1.81591134598560      -12.17269405444849
H            3.51004306623555       -0.00794800599816      -11.01174144471843
H            2.73082054811115       -1.19987669979238       -9.95513283793330
H            3.71553022210858        0.11498230726865       -9.26191687188414
H            7.33403848578719       -1.96873067382068       -9.75057589256779
H            7.19189983722886       -2.66525945109507       -8.13477596206779
H            6.56860804725845       -3.55591474322005       -9.52247608883153
H            4.82299523243181       -3.13411072352505       -7.24099920126543
H            3.43527103703279       -2.30570068291313       -7.95131227672871
H            4.17025242469736       -3.68326159935012       -8.78742391759268
H            5.10778740405045       -0.31346762887255       -5.13022260056115
H            6.40399311098971       -0.32231204207604       -3.90965058021831
H            4.31102194348612        0.29740431083057       -2.81673719722836
H            4.01731040116799        1.58243245305043       -4.00138470186996
H            3.65672285910184        3.60438993917242       -3.74793183409150
H            2.35681088451495        3.06236278367562       -2.65443045594392
H            2.70104197754385        4.77441639183192       -2.84030282427050
H            1.81728998057832        1.13834040463961        1.96565027217283
H            0.09003864321154        1.49512983898038        2.19236828475080
H            1.65358620457681        1.39553855565018       -0.42265284972419
H            0.65480193815174       -0.74609033885540        0.54221057743033
H           -0.04115500965967       -0.25913155209516       -1.03212362785370
H           -2.31633966687299        0.71395322852997       -1.02175441085111
H           -3.03456025653295        1.13434528458631        0.55986413620697
H           -1.41841414840062        2.82803344730756        0.99312852999206
H           -1.94282226154187        3.09545377652530       -0.68914583596060
H            1.47642303402700        4.60640001667207        5.51595564795427
H           -0.16925075898754        5.23786291163813        5.25826845072649
H           -0.16906205170021        3.92276604790671        7.33305609249170
H            0.55937751617798        2.54019691945524        6.50223447612835
H           -2.18819257546947        3.74992334887365        5.90662907222518
H           -1.88714783796547        2.18075666327446        6.67334870835820
H           -2.94488283743069       -4.03012245717307       -0.45075046542350
H           -1.68689124461193       -1.98678260282145       -0.97968106605862
H           -2.19414919653068       -0.50769300900529        2.98045637077031
