151
 energy: -221.324316107195 gnorm: 0.006021778726 xtb: 6.7.1 (edcfbbe)
C           -6.67168618545323       -4.98812534831120        3.81676060189250
N           -4.64110221703319       -6.79719625737112        3.00443504658994
O           -6.81872018014749       -5.31032325588469        1.38172753665957
C           -5.98428313371523       -4.87074253833015        2.45677034781005
N           -3.95670756805745       -3.30015791902356        0.11589770691980
O           -0.89077644343261       -0.10509245713649        3.81738551172974
C           -7.12809227162776       -6.68990139750987        1.33468754274554
N            1.27283068493208        2.53289897664380        2.74186671721759
O            5.37717486186836       -1.49665712201973       -4.73866727722031
C           -4.64945049174242       -5.59019990046799        2.45155548174688
N            2.62490663361341        2.64066104629362        2.39736025387012
O            4.88007484663910        3.59983196050789       -3.17782551245917
C           -3.52403291756558       -7.50098872751798        3.02469282583552
N            2.71022827006420        4.28767375693119       -0.84357370626338
O            1.63971539234526        6.28075437032590       -0.98482891720720
C           -2.32973394080753       -7.03679536732212        2.49611861274722
N            3.03545563909752        4.81382446170698       -3.59942493967759
O           -0.79491519627343        4.36375942279035       -0.31210153566502
C           -2.32598008028543       -5.77814980279372        1.92477367599102
N            3.59775056172765       -0.17522599707938       -5.24639415662975
O            4.21429547012417        3.10406015843936        0.88383212841912
C           -3.50103448770204       -5.02430305736848        1.88450934968423
N            2.91818465730026       -2.16071542932622       -0.09320630274227
O           -1.16247807693749        2.11738021245388        3.93292441195861
C           -3.40726153746214       -3.67196091368602        1.32073056916436
N           -1.73965530889738        1.73978697006341       -0.25590876826455
C           -4.71211858972110       -4.14360284727989       -0.77528652919683
C           -3.80183767751198       -4.88820046044193       -1.75034531482783
C           -2.64278810163066       -2.64784031580056        1.83609158879747
C           -1.90323601602680       -2.66209182798446        3.13490916522064
C           -2.54122206574023       -1.83987072918682        4.28255841074936
C           -1.93353243973313       -2.31028578064585        5.60690467631996
C           -4.05564990250918       -2.04569712259992        4.31213078859974
C           -2.27655797022350       -0.33658837568705        4.11925075205621
C           -0.48169265513794        1.14398290976467        3.69944509570105
C            0.96991770834476        1.19711483485545        3.24963985580085
C            3.02651444035361        3.10430845455374        1.20284347414569
C            1.97831524271368        3.69461237928000        0.25550025184660
C            2.50506123448797        5.50624757990975       -1.36000366393129
C            3.43529674746429        5.76430144300602       -2.55964417412508
C            3.46072615324098        7.21834290862900       -3.04480894081760
C            4.41016229496862        7.34522331695592       -4.23483634534941
C            3.91584376339274        8.12307998191421       -1.89975302773050
C            3.83978033810131        3.76909530282016       -3.81859372467066
C            3.43606177312507        2.66237712189314       -4.80855384671514
C            2.57029850468461        1.65860212336758       -4.03288907460314
C            2.32897076228679        0.39826189882837       -4.86605597526768
C            4.22502894663709       -1.12456349357935       -4.51558684937478
C            3.44540640660689       -1.67464352485661       -3.43557822875903
C            2.90430446963494       -2.09965869491783       -2.44738546989475
C            2.17219765539554       -2.59367003096076       -1.28255895982710
C            3.11495327217304       -0.72886348164549       -0.00885109726143
C            2.43841185236185       -2.68824304857728        1.16643665745422
C            0.72598157496638       -2.05674413863593       -1.35877644315029
C            2.16088747415589       -4.12736996068969       -1.38311371394236
C            4.36357653979890        0.69108106091610       -6.11501218654651
C            4.68988630764604        1.99848077990041       -5.38749160148101
C            1.74591200118859        5.05773768893005       -4.21555169668284
C            0.98738247804610        2.65807854029693       -0.28929917977333
C           -0.16182651634804        3.33756316048220       -1.05656160419496
C           -1.20247962123603        2.28758713848438       -1.47789798697607
C           -2.45211234339251        2.75626347184588        0.49420776913476
C           -1.48538004010075        3.89101324397238        0.83347243292724
C            3.59799729658640        2.28766553354690        3.42500080779975
C            3.33515726861679        0.87825336947022        3.94465525311920
C            1.88639512109549        0.78038581861779        4.41353651167334
C           -2.70577700301193       -1.59016619335805        0.88635237508238
C           -3.52463556814187       -2.03806422069453       -0.18129172514714
C           -3.74605687452929       -1.24067802549236       -1.29925554511957
C           -3.16650708589467        0.01029568324533       -1.33966164757403
C           -2.35865018379282        0.46674808246470       -0.28841907307701
C           -2.11047706710445       -0.33706085701552        0.80546482014354
F            2.69993051353529        3.16907085093792       -5.88371470958820
H           -6.73982501668513       -6.02433214982977        4.12058337072525
H           -6.09871228799830       -4.45009404741417        4.56326753659377
H           -7.66516789638992       -4.55991674494241        3.75741203133380
H           -5.82284214731926       -3.81299504464495        2.21797330747120
H           -7.92517094757260       -6.78217243482975        0.59987612852742
H           -6.26362374056543       -7.28122919532671        1.01365879069620
H           -7.47308800386020       -7.06298163763863        2.29899806792108
H           -3.59761774251049       -8.47347943823373        3.49139821661461
H           -1.43599437064007       -7.63775845281059        2.53398695745137
H           -1.42197470779577       -5.36610270590380        1.50024086959520
H           -5.29518207473843       -4.85035516584581       -0.18371559707417
H           -5.41294876188774       -3.51123931486598       -1.32501975219539
H           -3.22777760661346       -4.18207480121580       -2.34606804052823
H           -3.11022761329508       -5.52886013998344       -1.20780295133877
H           -4.40024596061505       -5.50455359925246       -2.41476057649234
H           -1.83770400998503       -3.69684790481707        3.47581082024170
H           -0.88814594205861       -2.29199778204025        2.97952397858584
H           -2.34407581742349       -1.74070388203122        6.43730952316879
H           -2.15648768621865       -3.36120307618443        5.77197494169322
H           -0.85465910233768       -2.18052327941311        5.59618273923687
H           -4.51109594881127       -1.69555157074140        3.38877832733241
H           -4.27786233544072       -3.10335348733302        4.42549881966237
H           -4.49903543121123       -1.50272789000514        5.14316647789793
H           -2.53181447122734        0.20504085510680        5.03536019084844
H           -2.87616874349538        0.07632313503992        3.30240769365751
H            1.10394417930819        0.48740214583490        2.42463839219392
H            1.01766408886952        3.22816997304900        3.44559073635650
H            1.42325953143343        4.49070674631146        0.76343776924157
H            3.54662181881423        3.77837636001004       -1.10694275670837
H            4.45221367423091        5.48235917786748       -2.26367719639984
H            2.45369887676194        7.52130668372034       -3.34231622884677
H            4.42945285394858        8.37150899475522       -4.59029037791686
H            5.41830711494463        7.06064511404205       -3.93953720866105
H            4.10362607777544        6.70186633292358       -5.05573696715865
H            3.13901611693387        8.19089502529269       -1.14133249216646
H            4.81992194126699        7.72851560500252       -1.43726249582376
H            4.12533694814227        9.12174605669398       -2.27499817584143
H            3.11295442893245        1.39600142322968       -3.12223077505667
H            1.61991055716783        2.11484140441843       -3.75596496941421
H            1.78736082068278        0.65865413487694       -5.77909630910622
H            1.75186642810384       -0.32903604444968       -4.29571437636663
H            3.44532242253681       -0.34373110831613       -0.97206524990100
H            2.21093018518051       -0.18148110560297        0.30103018753662
H            3.90479326577443       -0.52724959574735        0.71565169010378
H            3.13969839822595       -2.38036314578953        1.94125857799934
H            1.43733133008747       -2.32106932071830        1.43934257292542
H            2.42860726375233       -3.77351271210600        1.13699005534299
H            0.15147624446194       -2.39385077569391       -0.49961123892062
H            0.71272322955318       -0.96962733466634       -1.38113123077184
H            0.24586651155056       -2.42626109149141       -2.26056670183193
H            3.15404978091003       -4.51706221288598       -1.17803428051480
H            1.44740050420278       -4.55469224362848       -0.68522300589572
H            1.87466863240502       -4.42023119156771       -2.39020617639098
H            5.28707990663830        0.17826653928368       -6.38718209967779
H            3.77616446387728        0.89318314551838       -7.01391522392068
H            5.16814427429182        2.69661122009628       -6.07521170467108
H            5.37691303891428        1.80671144473809       -4.56202743190381
H            1.85805538799982        5.61043041628604       -5.14920290760491
H            1.22151174596153        4.13040512748039       -4.42489141894237
H            1.14453340440724        5.64513572008199       -3.52392785458558
H            1.51183381589795        1.98238333360505       -0.96571501551599
H            0.56090170680237        2.08756066602042        0.53190659424050
H            0.23137571183171        3.86010227693001       -1.93379276739398
H           -0.73030947918095        1.48937068460033       -2.05277897352613
H           -1.96847292047068        2.78235182316111       -2.10055119915986
H           -3.30336863690320        3.15462947653858       -0.08661502810031
H           -2.83225877106050        2.32441085155966        1.42122650802951
H           -0.77696033301106        3.54854902741944        1.59667840653575
H           -2.02912308110269        4.75629331133169        1.21527322003497
H            4.58652804647986        2.37326660612701        2.97491499678850
H            3.51017741255331        3.01281980606908        4.24202432950715
H            4.01897973128167        0.66269687495149        4.76414484362728
H            3.51371579750623        0.15839003100768        3.14471113071096
H            1.72069471049331        1.44784739995370        5.26086835895445
H            1.64537616534900       -0.23486085324406        4.72044720133298
H           -4.35818914609787       -1.58092014112986       -2.12044969813447
H           -3.33507173898742        0.64881147479235       -2.19393320572490
H           -1.43833347309029        0.02444880279231        1.56323574365385
