151
 energy: -221.321553648315 gnorm: 0.004340436224 xtb: 6.7.1 (edcfbbe)
C           -8.91125185453271       -3.16274486679563        6.97453479144022
N           -7.24661109426968       -5.41130782570373        7.40896069571250
O           -9.03365194291204       -4.81269453824066        5.15839815097612
C           -8.19316636913384       -3.86846787694112        5.82311155367134
N           -5.84752533424448       -4.06990248689455        3.32866714664061
O           -3.00089886244572        0.65686272973755        4.77490311004469
C           -9.99303550135945       -4.23760488655460        4.29785878035649
N           -0.89620865869692        2.65710944458011        2.71270040634282
O            6.65429079137202       -1.92778941114747       -7.83948118192571
C           -7.00442368834932       -4.64670715496803        6.35266141494618
N            0.46302794500913        2.98458483314251        2.67892761571299
O            3.82923843229554        0.11237886528769       -3.33818291015643
C           -6.26500465911647       -6.11200624916809        7.94485876309306
N            1.68337244364082        1.84134002797815       -0.57291955590530
O            1.26814037732136        3.74866491644028       -1.69856767493642
C           -4.96234056686316       -6.07746313973107        7.47003591578211
N            2.99507545444528        2.17345728796231       -3.68571357912446
O           -1.43507817867814        1.18674712142771       -1.37287902116098
C           -4.70123168229658       -5.28717659544225        6.36743503588817
N            5.12013781630659       -0.25355934062744       -7.78091224088284
O            2.46413399540439        2.88913271812967        1.68017870072779
C           -5.73347265984557       -4.55908673402848        5.77151451690277
N            9.76214238632103        2.60570677277722       -8.97508541478029
O           -3.54368354195768        2.42632364004113        3.50621433084930
C           -5.39103701617087       -3.75646569131310        4.59117715417433
N           -2.82036962005030       -0.45302399835351        0.42882612858954
C           -6.63712176225664       -5.22643583675857        2.98341305750981
C           -5.75357217441719       -6.44514137531296        2.72256599978959
C           -4.48789703095587       -2.71882897302569        4.52729025697148
C           -3.80420386016377       -2.03415355213676        5.66562905469323
C           -4.47278767287802       -0.71619885901056        6.12633278310258
C           -3.76173704600944       -0.22301882261557        7.38950751019305
C           -5.95192225976424       -0.94634666350249        6.43001078438449
C           -4.37841773373735        0.35899288585373        5.03699945095642
C           -2.72193608598644        1.69263858847854        4.00899604405188
C           -1.21928641940214        1.88973521145835        3.91143425959739
C            1.26119834174780        2.64592930001810        1.65568213506171
C            0.62914939996322        2.01802768338200        0.40450024190423
C            1.97170091921179        2.76585875148954       -1.49631654189149
C            3.26005410378003        2.50304142157433       -2.28530126835913
C            4.19300223647508        3.72403459350048       -2.14253402785145
C            5.42952988860044        3.57649008191198       -3.02618709896692
C            4.61297810214651        3.85730089963536       -0.68010120923753
C            3.38792046325916        0.96568310513323       -4.11137828225762
C            3.44874951814635        0.66304992791553       -5.62639434739474
C            3.74751406551310       -0.82077159729568       -5.85844314346207
C            4.04348077486307       -1.10819140510778       -7.33372536160684
C            6.38055375660927       -0.72646113166572       -7.84810408254931
C            7.41271251297281        0.27703260363902       -7.92080050808936
C            8.35554613541991        1.02514584359221       -7.88142456152550
C            9.43230535674206        1.99292046729915       -7.68133794158658
C           10.05103169149833        1.64802880453228      -10.02301989478895
C           10.79462572585903        3.62076092242541       -8.91999019448771
C            8.87201368929208        3.05847279383335       -6.72222165545194
C           10.60128443934607        1.24685391080428       -7.00545897484526
C            4.79218244365344        1.14936501876170       -7.70653745759076
C            4.53265096651051        1.54972862877153       -6.25265620964780
C            2.31405709816339        3.19336619600527       -4.45615623838416
C           -0.09851950857315        0.69638901404322        0.64317572977969
C           -0.74883033692751        0.17454035492006       -0.65174036639867
C           -1.70119321665609       -0.98563464443454       -0.32447397153699
C           -3.55269861379389        0.50304363551945       -0.38050574949816
C           -2.60355669719228        1.65144742463328       -0.71645601460031
C            0.99029968690747        3.69791045159071        3.83572634393314
C            0.73581181210593        2.88533480144372        5.10179347169722
C           -0.75581353852534        2.58173597429198        5.20863717703568
C           -4.34768199321163       -2.39616193189312        3.14650229072861
C           -5.21043059488498       -3.26170371769108        2.42896443966814
C           -5.29787354274421       -3.19931694749254        1.04168714551105
C           -4.51770730907661       -2.27550496820609        0.38116949902383
C           -3.63864084946698       -1.43134269109924        1.07666677672803
C           -3.54166788514038       -1.49825287283278        2.44958508830915
F            2.21840093594955        0.93001920623057       -6.24894152203244
H           -9.25762054116033       -3.90999104380616        7.68216484015930
H           -8.22340814960775       -2.48862481829953        7.47420456312616
H           -9.75706702275139       -2.58823600981345        6.60830547715151
H           -7.84371506374012       -3.12870443409752        5.08546890875051
H          -10.55358019195140       -5.07144496175242        3.88020204165886
H          -10.67660534741487       -3.57472261355752        4.83260491182910
H           -9.50401264248595       -3.67778678231380        3.49155954823678
H           -6.53823314844902       -6.71971084256476        8.79666715528022
H           -4.18430186407233       -6.65315740786491        7.94447502382789
H           -3.70795497326600       -5.23272126193380        5.94590845513901
H           -7.33211194397606       -5.44294297563910        3.79731759422228
H           -7.21558437017815       -4.98699937576731        2.08781786835637
H           -5.20128938781802       -6.70831125892011        3.62172819763730
H           -6.36928370325951       -7.29118039679082        2.43274699787689
H           -5.04299288694375       -6.23475275827172        1.92641085192220
H           -3.78041137189629       -2.70718731032464        6.52422899777169
H           -2.77763870908763       -1.80702816567849        5.37454989921544
H           -2.69257326384233       -0.14044944904518        7.21614210037985
H           -4.14222497859269        0.75223280345321        7.68277279251641
H           -3.92954584231969       -0.91722355796153        8.20794362771575
H           -6.40247348334742       -0.04837156828801        6.84412677772086
H           -6.49032404336850       -1.21614770297183        5.52560742553716
H           -6.05649781398973       -1.75460515988098        7.14886564969042
H           -4.88043944265285        1.27944089462664        5.35064685645768
H           -4.84322778588968        0.01652419360369        4.10829386869131
H           -0.73300479440591        0.91246283360734        3.83066121974981
H           -1.47223326143684        3.50001904591382        2.68626030068111
H           -0.06079249199022        2.75537321475727       -0.02168923066900
H            2.34072294303448        1.09466154051735       -0.40384900737795
H            3.76647973179054        1.62774564200264       -1.86773630087615
H            3.63104327632446        4.62005768450795       -2.42210211518168
H            5.92264238531831        2.62821152063276       -2.82122362698800
H            5.17852908036462        3.61060208164766       -4.08204736454827
H            6.12728656912236        4.38144251299962       -2.81457964447648
H            5.23034118123718        4.74155880100757       -0.55044116310020
H            3.74831437826133        3.94397576842905       -0.02635613350907
H            5.18438309044178        2.98689882743096       -0.36605145969399
H            4.60528867096921       -1.09621705201277       -5.24459546860217
H            2.89170139640298       -1.40891097332660       -5.52637775479805
H            3.15661051098420       -0.91348573866857       -7.94234131968658
H            4.35285564511091       -2.14669407818954       -7.45904789239758
H           10.05143377008364        2.17487183541023      -10.97694925695369
H           11.02851473101601        1.15479800955340       -9.90578853874114
H            9.27575361119458        0.88402100441215      -10.04671249990922
H           10.54761379989257        4.36861223416304       -8.17313618633701
H           11.79383839101811        3.21224046083889       -8.70749497395640
H           10.83182597116967        4.11042668606856       -9.89249553049411
H            8.36667194239413        2.56851688286478       -5.89233196795473
H            9.66950510024452        3.67366119433479       -6.31657937202117
H            8.15950016422087        3.68742286310669       -7.24829320071972
H           11.39957580432479        1.94264943547419       -6.76107642492238
H           10.25277354541095        0.77875248929462       -6.08861415200432
H           10.99022846613056        0.46891967101405       -7.65810224325173
H            5.60841701876959        1.74031714086185       -8.12144309474991
H            3.88629709060444        1.31471466018218       -8.29721224431962
H            4.23164739051381        2.59432149678764       -6.21380045237557
H            5.44504090256889        1.41886278839392       -5.66863222672331
H            2.92934167748920        4.09061714933445       -4.51594703051913
H            2.07020490693940        2.85192481161278       -5.45292390467873
H            1.38626621852103        3.45534098778056       -3.94484530654045
H            0.60459625653246       -0.05330848696377        1.00468217067489
H           -0.88250382260411        0.84274658610733        1.38201170636410
H            0.02424562542191       -0.16292243734465       -1.35046440327594
H           -1.18727054610988       -1.73238728629197        0.28113330406731
H           -2.02537489777312       -1.45618357290044       -1.27008346611908
H           -3.92970010299428        0.05711616691788       -1.31829974613545
H           -4.39590005476722        0.88359627248820        0.19839810094733
H           -2.34378752016790        2.18143521366710        0.20746954457318
H           -3.06600802656452        2.34796395276029       -1.41720364771568
H            2.05497974791649        3.85266110586119        3.66366077958980
H            0.48870423452494        4.66955938183704        3.89964683166602
H            1.07230917592951        3.44889886944566        5.97060300328805
H            1.30058115464620        1.95352340287704        5.05194977744380
H           -1.31815954595195        3.51018057842770        5.33941235066015
H           -0.96025183991901        1.93106689521155        6.05796951689607
H           -5.95173676751293       -3.85535824446066        0.48767836830181
H           -4.57054035091559       -2.20675278045549       -0.69601444458078
H           -2.83550990586770       -0.86114716025674        2.95429984141562
