151
 energy: -221.324702529555 gnorm: 0.009697926257 xtb: 6.7.1 (edcfbbe)
C           -7.96135449428331       -4.35859639701078        3.91691029946989
N           -6.22579168403203       -6.43051668032874        4.76532314859913
O           -7.09076730690737       -5.66002177107043        2.02602712046158
C           -6.74505236683575       -4.77400915044847        3.09012710163891
N           -3.81218368499960       -4.42688213885193        1.57492300439964
O           -2.39894936681128        0.35690048484562        4.42201035497344
C           -7.75329136974691       -5.04422938330694        0.94291245019427
N           -0.45254289530902        3.09500289986012        3.30821105746028
O            1.01129533701921        0.79082622081715       -7.04418501424144
C           -5.73338297350183       -5.51596058703119        3.94255969350264
N            0.79812983104444        3.66202843382130        3.57327479761060
O            4.02576397692147        2.74973263413968       -2.71622396416799
C           -5.40192807100099       -7.12998934209294        5.52528623433952
N            2.54599621120552        3.67905099173919        0.36641829844562
O            1.64012305963300        5.48950487143756       -0.63255983481075
C           -4.02754370597810       -6.94811894662517        5.52303154736838
N            3.68787719289422        4.97054312859295       -2.63418999134341
O           -0.18088852726703        2.57541108188108       -1.03612787677951
C           -3.50401068454538       -5.99351319569068        4.67087307347217
N            2.84096462139004        2.13784253547078       -7.04911491178305
O            2.86674194478573        4.20322309682479        2.90133036555329
C           -4.35814713555373       -5.25941647397912        3.84826195881775
N            5.82812472748043       -2.27499480595589       -6.38232086088524
O           -3.09020323720466        2.34298566365517        3.64593453957876
C           -3.78013344042877       -4.25926994768850        2.94299580218212
N           -1.25397992080480        0.25055314390214        0.10405417026516
C           -4.16917923405584       -5.64245022941792        0.88633172091266
C           -2.97492979650829       -6.58965736141158        0.77437706823049
C           -3.13008624645238       -3.09114419347081        3.26976993454719
C           -2.84937748042917       -2.55569740331767        4.63785290567716
C           -3.82447616550458       -1.47383944835700        5.15733546646277
C           -3.47108162640333       -1.15611450853056        6.61340407077366
C           -5.26606130878780       -1.97674997372469        5.07886676703993
C           -3.72355661440283       -0.19050685021281        4.32362737982626
C           -2.21684213198406        1.60815553936145        4.05432817146763
C           -0.77809353716266        2.04492022187152        4.26953909560759
C            1.75492497892408        3.75373402577666        2.63729464192818
C            1.40564182255813        3.35677961749417        1.19819438520026
C            2.58858882019976        4.73360812261274       -0.45567619285034
C            3.92605141668992        4.90007195681919       -1.19121555234185
C            4.71760189397145        6.09952989425710       -0.64417921794864
C            6.04221177782869        6.24487056222988       -1.39338416303934
C            4.99514538343216        5.88924755864941        0.84388434169446
C            3.80136666541374        3.81540693165425       -3.29819101804451
C            3.68129374456330        3.76896895970962       -4.83689326743291
C            2.20905428263996        3.64004156603982       -5.24923954358742
C            2.07730881286997        3.32631719150806       -6.74389171850575
C            2.23630751304174        0.93223613309382       -7.01817664041835
C            3.10540568749770       -0.21205697872224       -6.93958070917758
C            3.70672844455494       -1.24200370160708       -6.76736429835700
C            4.38243281672672       -2.50737141017313       -6.50275387851546
C            6.60882252287640       -3.46002298828606       -6.09087725054197
C            6.19487980752930       -1.21016522067557       -5.46881230875159
C            3.71983801548202       -3.09477875034443       -5.23618110127498
C            4.09785218494333       -3.42176005752012       -7.70667172154365
C            4.25624458449050        2.32386885208990       -6.83382744305161
C            4.51828210214310        2.59227644327595       -5.35269613484795
C            3.12547241126990        6.20683753321003       -3.14003845750680
C            1.02450858785104        1.88644935316810        1.00715287150172
C            0.66971942873665        1.59305535304002       -0.46311903405009
C            0.02153480193780        0.20478155062974       -0.58143750733907
C           -2.13658278700133        1.19805181714292       -0.55250884639495
C           -1.48593925559285        2.57841224966953       -0.48118402270448
C            1.01476433006040        4.17611543789159        4.92000919769357
C            0.77132672654934        3.06872314421684        5.94076179547063
C           -0.63344033417589        2.50731493989383        5.73518968096471
C           -2.73276077671339       -2.50077413345025        2.03299045902414
C           -3.17069652763675       -3.36612330985883        0.99969094064677
C           -2.95344478003809       -3.06039797832159       -0.34002577170712
C           -2.31883185993343       -1.87483250132232       -0.64171535014121
C           -1.87003563406157       -1.01360771894378        0.37049805409342
C           -2.05053678978345       -1.33303722860515        1.69936090352454
F            4.21732517662817        4.93044308092753       -5.40962888008984
H           -8.46415892413973       -5.25028831461786        4.27969157091766
H           -7.64148508057802       -3.75988565870682        4.76360790939336
H           -8.64874890001924       -3.77163092921782        3.31303322685607
H           -6.26460969212596       -3.88083725030996        2.65743752327569
H           -7.83671330116736       -5.80720692734439        0.17219528567764
H           -8.75276672356361       -4.70000543282944        1.22031924566054
H           -7.17080714386390       -4.19592064891470        0.56364000924065
H           -5.87420219902385       -7.86241727188762        6.16568700033139
H           -3.38974913880333       -7.53700015617966        6.16188602827855
H           -2.43956988819275       -5.81509059893731        4.61730843065277
H           -4.98249633661855       -6.13279613025619        1.42403256875146
H           -4.52764894091248       -5.37483624703649       -0.11010350642750
H           -2.14214903589405       -6.09344394269632        0.28144095796853
H           -2.65383167389639       -6.91106492232114        1.76193811589466
H           -3.25559468213585       -7.46552569896660        0.19751154523264
H           -2.87675548811147       -3.38383329112732        5.34850806888625
H           -1.84359985759409       -2.13143158264285        4.64201556824559
H           -4.11470995697436       -0.36728145822659        6.99520640716741
H           -3.60458127941136       -2.03808906190429        7.23467471484327
H           -2.43735438129330       -0.82877765124124        6.68941985096979
H           -5.57100510627332       -2.10174139842627        4.04462618160837
H           -5.34747926612324       -2.93865487765464        5.57882177139361
H           -5.94336721136162       -1.27925619646208        5.55925939498726
H           -4.43524996343842        0.56289182913485        4.67649028602612
H           -3.93470533867763       -0.39385530062811        3.26990948864913
H           -0.10839402067057        1.19755970708183        4.09069378531611
H           -1.18571446229555        3.80518361730628        3.32582548956331
H            0.58798496882718        4.00119833716787        0.85831474025386
H            3.38979418121936        3.16239585082245        0.56103247833098
H            4.52098755642002        3.99442186285687       -1.03853354600493
H            4.11328791853130        7.00322250781635       -0.75791290597963
H            6.66683341659003        5.37253734348025       -1.21072145414529
H            5.89484910625179        6.33404536717620       -2.46581258339831
H            6.57092369073607        7.12626321502056       -1.04172494688984
H            5.54443354604399        6.74067507715417        1.23724608783094
H            4.07546814092708        5.78112839901583        1.41491886090640
H            5.59523184616917        4.99508960854709        0.99716452182635
H            1.77168116173394        2.82677765827522       -4.66471711443573
H            1.66790666093994        4.55569301498020       -5.01577777675717
H            2.46628496943781        4.15558831666296       -7.33963894332805
H            1.03123552668237        3.14705420478553       -6.99971159314546
H            6.38488530508289       -4.24776122847390       -6.80218951545039
H            7.66098214961339       -3.19732794211679       -6.19305760999993
H            6.45071840212837       -3.83677299974630       -5.07071672552053
H            6.10573132528994       -1.49830225883201       -4.40917736445222
H            7.23270625971833       -0.94053578716305       -5.66430819434900
H            5.56922777050398       -0.33736660996983       -5.64363441607284
H            2.63838194017958       -3.15901373154139       -5.39063190954979
H            4.10934224755078       -4.09376252978255       -5.04132531383198
H            3.90846259480254       -2.45414095757323       -4.37079956801847
H            3.04153305463733       -3.36985577476018       -7.95888382189638
H            4.68073106033297       -3.09269684043910       -8.56184829169544
H            4.34470152149928       -4.45311576620611       -7.47599742302024
H            4.80188618565125        1.43915502433947       -7.16026665692021
H            4.57654609059081        3.18385587825231       -7.42920857347856
H            5.57331176337700        2.81579510287611       -5.18852278684160
H            4.25587336045739        1.71703991431788       -4.75773098839751
H            3.81325461809017        7.03175679256166       -2.95972420817883
H            2.93165585012672        6.15043911123959       -4.20296423304574
H            2.18873037882981        6.40003382693567       -2.61153134830640
H            1.86156796179663        1.24903387803766        1.28984408927982
H            0.16332427514800        1.65024336588271        1.62774295307347
H            1.57394839335821        1.63767896689690       -1.08228192069870
H            0.65397566629561       -0.54840171006971       -0.10990206488647
H           -0.08571341959062       -0.04115824833186       -1.65531209641098
H           -2.32119957873161        0.93171702990391       -1.60978919947384
H           -3.09068444305480        1.21965563130800       -0.02183481327617
H           -1.46061951598698        2.90461588316077        0.56499626206877
H           -2.04566204583286        3.30422968216046       -1.07320144220728
H            2.03664982999231        4.55286826851538        4.96291777719648
H            0.31605312807182        5.00417119064092        5.08773776641694
H            0.87742383412530        3.47193021400423        6.94700025561818
H            1.51137464884073        2.27912374341939        5.80258025700071
H           -1.37806305344322        3.28114077273644        5.94184255322290
H           -0.81616870284542        1.66446103899269        6.40138675438292
H           -3.27882153395890       -3.72037836616349       -1.12947569445451
H           -2.16348723364025       -1.60300540714305       -1.67751167047823
H           -1.66456267829672       -0.66741658345050        2.45264405176370
