151
 energy: -221.322222484162 gnorm: 0.006434201767 xtb: 6.7.1 (edcfbbe)
C           -8.68661318486621       -3.70910601975626        3.51878069585952
N           -7.60201151947649       -5.56870322225576        5.34327117450296
O           -7.37857050263768       -5.43077630220270        2.35358291553195
C           -7.31851051703813       -4.34579531701368        3.27849434782645
N           -4.09434076766641       -4.55024626378457        2.81763100368198
O           -3.02825918986537        0.76218269890334        4.91075981015778
C           -7.49400465128747       -5.04580178611155        1.00078429389496
N           -0.50018616165094        2.99569751315250        3.71696089785038
O            2.90297154650241       -1.59967767001575       -7.24815291951085
C           -6.75220938927845       -4.91021927341757        4.56928137008673
N            0.79656984360537        3.37210831315139        4.08382840489471
O            3.36958078522888        1.55358190459225       -2.19737949149681
C           -7.17507729530787       -6.07685279369649        6.48565630956333
N            2.58965708628375        3.09662135369422        0.91145197637888
O            1.72139237179214        4.91872371080408       -0.08820237177642
C           -5.87259384356849       -5.93884475068669        6.93912688095338
N            3.12375454111645        3.78141464074875       -2.39034009140164
O           -0.18435494521180        2.00130340792443       -0.35727122512882
C           -4.97484879071563       -5.26147776583372        6.13388583898743
N            3.01358359337657        0.58421941680077       -6.65476664140313
O            2.96727911863967        3.58196396766083        3.53851026129987
C           -5.40203296981379       -4.74400188884276        4.91286710474647
N            8.02591941897317       -0.14251235980537       -8.99334373836581
O           -3.16062696651022        2.50492450025837        3.51239779270644
C           -4.45889201657850       -4.03391561897231        4.04249604350219
N           -1.16722320646006       -0.26105702722955        0.97871527529431
C           -4.30731227929444       -5.91086123036648        2.39242439587222
C           -3.22781047387947       -6.83896131321495        2.94676948142872
C           -3.86914293140472       -2.80647383581016        4.24618362068535
C           -3.90711501324572       -1.97635449617252        5.49125844771156
C           -4.85050524372335       -0.75130945238353        5.50919977443119
C           -4.89288760805585       -0.19841160736969        6.93704691003090
C           -6.25700200821761       -1.15667022326141        5.07053784124607
C           -4.36424212109707        0.35371739038866        4.56471949378332
C           -2.53850132223646        1.82107994658352        4.29483622886866
C           -1.09679636875935        2.09466773429270        4.69993868092869
C            1.82173712241767        3.28465773552053        3.21909430303698
C            1.47200683593576        2.85491587852272        1.79515806473624
C            2.57822610164464        4.04298537436234       -0.03230992562142
C            3.71149390445948        3.92674713316509       -1.05690126209819
C            4.69846616889476        5.10120503753047       -0.95057710361887
C            5.86112117847251        4.90612493752333       -1.91996480631071
C            5.20989723406073        5.18634364963780        0.48700042212340
C            3.02906531170100        2.53387374548304       -2.86914490663645
C            2.65866964897705        2.25458827836244       -4.33954694586575
C            1.97777768839439        0.88925983928752       -4.46059068099884
C            1.76349880464514        0.53437531051691       -5.93041189573309
C            3.48833099212836       -0.51246652332843       -7.26667334776036
C            4.71794406820639       -0.38355261369115       -8.00718837488912
C            5.69322721830549       -0.54086719157074       -8.69758481572070
C            6.83053121959351       -0.74898373122732       -9.59217666505437
C            7.89943276342938        1.27730259510713       -8.73713335046832
C            9.27046443089747       -0.42118588424831       -9.67974634487337
C            6.99723249405237       -2.27451461624671       -9.70333001006244
C            6.44595478511192       -0.17666782773562      -10.97440102353231
C            3.67158179743124        1.86702019579084       -6.61638524071080
C            3.95132654181066        2.28398404154745       -5.16809816454324
C            2.53134141305141        4.97019648683916       -2.97368793406266
C            1.07160216240254        1.38339546111261        1.67420801249023
C            0.68786218644790        1.04067237651260        0.22197978855498
C            0.02956183711522       -0.34423047959062        0.17203583609995
C           -2.10528317730857        0.67828366723620        0.38442108749772
C           -1.45168482226594        2.05408400938024        0.28088829602354
C            0.96588347990947        3.94744609546210        5.41244029073050
C            0.40944646689325        2.99661668968838        6.46773192045021
C           -1.04364655354363        2.66059668866832        6.13119853815154
C           -3.11211681382869       -2.53812830526805        3.06746148012184
C           -3.25911031726154       -3.65694102829162        2.20914583613017
C           -2.62133873334441       -3.70802768184308        0.97475028896164
C           -1.90309751181208       -2.60579521861368        0.56261069895762
C           -1.79147353909068       -1.47279146145133        1.37958634553445
C           -2.34787828783396       -1.45812807088569        2.64281488762797
F            1.78176558947286        3.19245544018859       -4.88803888828269
H           -8.59423579593862       -2.92120248603720        4.26010953159335
H           -9.07424992780321       -3.28059411164134        2.59909541546872
H           -9.37154452974631       -4.46773895701381        3.88378576092458
H           -6.62068487506583       -3.58952179917818        2.88324465455308
H           -7.38550674857047       -5.96065162488263        0.42277886219069
H           -8.46761903453902       -4.59600190289284        0.78646142998722
H           -6.70105787511595       -4.33858772866589        0.72716674485072
H           -7.91695529884766       -6.61369519468950        7.05922339286566
H           -5.57134340415129       -6.35473032864093        7.88671702715009
H           -3.94321567730589       -5.14024560486388        6.43020715227047
H           -5.29238420951918       -6.23827716644227        2.72908779057515
H           -4.29397058224213       -5.93168450232638        1.30045096976274
H           -3.27170650378802       -6.86077412001122        4.03335950470012
H           -3.37957643627735       -7.84649347924530        2.57159889334113
H           -2.24125134965228       -6.49366275399461        2.64462880303977
H           -4.20726818706769       -2.62093016012947        6.31865524839596
H           -2.89507821214877       -1.61658176092329        5.68778019542489
H           -5.49290918081716        0.70686932767196        6.97422008336629
H           -5.33025742398733       -0.92767021479525        7.61239486457770
H           -3.88932189679444        0.03744758730503        7.28038251341247
H           -6.25252589937963       -1.48991305850669        4.03611713731584
H           -6.61823852871891       -1.97134828054782        5.69244052866578
H           -6.94302914920253       -0.31842392869909        5.16057956926661
H           -5.01821043580972        1.22918643889286        4.62277155083451
H           -4.35826396837689        0.00263364985526        3.52862137008228
H           -0.54117526280376        1.14929573278598        4.67044040171203
H           -1.09825253217735        3.81640561466426        3.60261009631749
H            0.65969409959975        3.49850037252782        1.43991966118855
H            3.35429941703998        2.43964411772280        0.96835553575336
H            4.25904175671938        2.99734260939440       -0.87171539474906
H            4.17635608572709        6.03222216873295       -1.18358129529257
H            5.51159007464315        4.83995627281706       -2.94602768638120
H            6.55246744663464        5.73931726704564       -1.84125178319122
H            6.39616204992134        3.98959357229145       -1.68228595139355
H            5.92506185149558        5.99932737624063        0.57788431447649
H            4.39263830628567        5.36881161873763        1.18287081149473
H            5.70106396795751        4.26032114009829        0.77625520317385
H            2.60683741260955        0.14739185718333       -3.96887561484732
H            1.01684600064772        0.92558575288668       -3.94383402466697
H            1.06496812224118        1.24761121108593       -6.38208415002550
H            1.36029037933372       -0.47517919801477       -6.02591818850228
H            6.93504640918096        1.48067730314793       -8.27604870216521
H            8.68574826002687        1.57067734157593       -8.04205414289567
H            7.99911782809248        1.89102116932873       -9.64467163480841
H            9.34565418464774        0.07216919941390      -10.66064081436653
H           10.08344915914001       -0.05318609625520       -9.05502157553199
H            9.40125848281775       -1.49083586448670       -9.80803281999001
H            7.61043710897148       -2.53770531485190      -10.56072405180416
H            7.44847004604084       -2.66562893336306       -8.79614416512052
H            6.01900807247417       -2.73316416297766       -9.82704399498403
H            5.54862843756795       -0.67228776290382      -11.33456936000509
H            6.24972499263747        0.89061087203201      -10.91290850451624
H            7.25156767657978       -0.35332033511810      -11.68296937424903
H            4.60431337304052        1.80874849765489       -7.17863584036586
H            3.01495207895374        2.61139872527371       -7.08090557135590
H            4.36524051393319        3.29260096983356       -5.15743931814931
H            4.66401082306867        1.60104831627256       -4.70588111871648
H            1.60126546229079        4.73713956041001       -3.47924584517849
H            2.28986677480813        5.65432659040436       -2.16503171112898
H            3.21693380796264        5.44880600101888       -3.67289173743170
H            1.90574729388198        0.74842168872488        1.97215219894567
H            0.21880191097191        1.17683909310894        2.31638331267096
H            1.57135897494811        1.06037906591988       -0.42653336605933
H            0.69705355389803       -1.09618724148825        0.59268217994221
H           -0.18002940445534       -0.59248567395535       -0.88205002831907
H           -2.41993188688898        0.33737223365417       -0.61787721955441
H           -2.98853201894521        0.75612725351101        1.02170361206351
H           -1.36314048969724        2.48535451240910        1.28415723430234
H           -2.05663662792264        2.71640839083602       -0.33913254401454
H            2.03039541071833        4.13074501378673        5.54669844254249
H            0.42966652287832        4.90313321565389        5.44579181053672
H            0.47257640110679        3.46852435756161        7.44738625792849
H            1.00380866004739        2.08218881381859        6.48295969132687
H           -1.65720645714107        3.56186818767401        6.18914654972489
H           -1.44013505961291        1.92365808223301        6.82728628949417
H           -2.69965139321063       -4.57440992196567        0.33603561934904
H           -1.42708860566488       -2.61002199113332       -0.40665594211032
H           -2.18209102937586       -0.59459279675931        3.26051005038251
