151
 energy: -221.324106691656 gnorm: 0.003502886503 xtb: 6.7.1 (edcfbbe)
C           -8.93985677983807       -4.17605983609430        3.90113038229426
N           -7.65248485009635       -5.56444470627347        5.93924152513794
O           -7.39703086584427       -5.81275279606627        2.90532940545156
C           -7.49707979397837       -4.64198451426372        3.71261429861275
N           -4.21664428872910       -4.74248287445205        3.21604926563136
O           -3.58799829140319        0.88552333996386        4.32020109103240
C           -7.68983702605653       -5.61137383800983        1.54034001290780
N           -1.16703501405997        3.07891711375187        2.87717328505168
O            2.77060986643918        2.10572981377328       -8.50288909737248
C           -6.86456409864251       -4.97984651418817        5.04972146165646
N            0.01340888733653        3.69818603059147        3.30244677055867
O            4.50344807537485        1.82245274032815       -2.37532851582046
C           -7.17194572571611       -5.86612351382192        7.13246951696258
N            2.49734593493281        2.74608890961549        0.78824968527216
O            2.17625782843344        4.75438146614739       -0.17409180143632
C           -5.87253543783519       -5.58053103658415        7.52074808490579
N            4.38520042399931        4.01626194372150       -1.87293818158180
O           -0.05966303259356        1.23775044890259       -0.75213707644801
C           -5.03802803896333       -4.97950724841155        6.59543554504663
N            4.39514501620023        2.65233417685179       -7.01875069795793
O            2.22483229825372        4.00159899827220        3.10522157300497
C           -5.52171571854677       -4.68007689244266        5.32354314740068
N            7.16889896909218       -0.67854230045632      -10.54488620570470
O           -3.79059058906555        2.28740025081876        2.58009876292114
C           -4.63201273198105       -4.05697789008086        4.33712615929535
N           -1.26633603795794       -0.72187379440151        0.84391794850801
C           -4.33059372854340       -6.16688122640125        3.02256617055469
C           -3.16355530882225       -6.90299291676166        3.67904006288266
C           -4.10258896620586       -2.78659281479395        4.34890993516932
C           -4.22751445576805       -1.75830090068115        5.42809802515651
C           -5.26360011192951       -0.63230325861294        5.21001815092759
C           -5.34094574091559        0.20161923051763        6.49201046313887
C           -6.63705724677025       -1.22122677564130        4.89308004654662
C           -4.85985952516970        0.27866914073526        4.04390443568948
C           -3.16838657296660        1.84803159057681        3.52245209661079
C           -1.81545814156720        2.37088095918054        3.97724404184494
C            1.18791045940041        3.49671926495118        2.68621237829633
C            1.18286167033030        2.67464815248389        1.39113867411215
C            2.90500883408806        3.79955552380114        0.07303890041619
C            4.34307508804199        3.68376913052657       -0.45044799075349
C            5.32570218920893        4.53763377793152        0.37537942110409
C            6.74537532030924        4.37006338028384       -0.16412563772313
C            5.27955911804074        4.11752853958734        1.84271694609406
C            4.52037179309263        3.00246819377027       -2.73450806740348
C            4.71812561450539        3.30012780106070       -4.23190370057659
C            3.37462855467520        3.45926935640312       -4.94955471844992
C            3.61468772939552        3.72018012169953       -6.43672270966779
C            3.89731006671908        1.92348860663847       -8.03076242203463
C            4.74947545996888        0.90546278574551       -8.58832529105632
C            5.28497353325296        0.05038028489238       -9.24781465993264
C            5.87926707294511       -1.07411635122771       -9.96475068958816
C            7.88133875127416       -1.75437193760269      -11.20439257261927
C            8.04532589646775        0.03750724205139       -9.64312406149618
C            5.96163811423870       -2.24956308665254       -8.96592485180975
C            4.89278156609096       -1.41541694601605      -11.09763677738568
C            5.67965580068502        2.44080198812889       -6.39560371115722
C            5.51511385560747        2.17262913536335       -4.89695500717918
C            4.21819449139454        5.41430106779234       -2.21799111278134
C            0.79056027320126        1.20986345094906        1.56192044983543
C            0.69654917477824        0.50029539926008        0.19716724431310
C            0.09213971460562       -0.90065026697469        0.37909865744297
C           -2.05410768562408       -0.04470629821884       -0.17157450075801
C           -1.43793979583202        1.32919167130036       -0.42612184859203
C           -0.09225800869366        4.60207337300035        4.44005349134594
C           -0.69602548262071        3.86431133521904        5.63078575559965
C           -2.03577865654603        3.26209315957395        5.21520922547671
C           -3.31668868544612       -2.67743171594845        3.16358951011508
C           -3.39873091456150       -3.92289428973173        2.49179429492070
C           -2.71905877503452       -4.14476131938399        1.29843420238027
C           -1.99770587587000       -3.10347820399757        0.75544334068737
C           -1.92640178139049       -1.85925329425650        1.39788209696037
C           -2.55358640507453       -1.65473201036617        2.60856266840282
F            5.46992101283254        4.47334376132520       -4.38253630119109
H           -9.52123935855041       -4.98504186969092        4.33192523235222
H           -8.95833948092858       -3.32618350116021        4.57617870744235
H           -9.37360519507483       -3.87856759272744        2.95079713947274
H           -6.90687958664567       -3.84319846740823        3.23230198556279
H           -7.35767834285013       -6.51077521717703        1.02813749788692
H           -8.76044797174140       -5.47407923669732        1.37164474763142
H           -7.14756260152155       -4.74359862020622        1.14895721202283
H           -7.86899817414504       -6.34900539778830        7.80332888441011
H           -5.52585810312262       -5.82613576126258        8.51113194648342
H           -4.01167786036106       -4.74941880682639        6.84213641573436
H           -5.27873327850021       -6.50574808244694        3.44392476849299
H           -4.34465329515297       -6.36496872998727        1.94875838244623
H           -3.16902467210807       -6.73427857055251        4.75328631531554
H           -3.24624864010173       -7.96948540670175        3.49333202072542
H           -2.21829713494471       -6.54614513585734        3.27623097400912
H           -4.49516283026123       -2.26580581758476        6.35673018692903
H           -3.25104431472340       -1.28937884307114        5.56278560552879
H           -6.02206643112905        1.03898175617762        6.36140722104968
H           -5.70068422605012       -0.40833779154552        7.31624063467621
H           -4.35941399523554        0.58998130464395        6.74955604862908
H           -6.91358550564156       -1.95132313767889        5.64917461738841
H           -7.39289828159784       -0.44062754663119        4.86894722405918
H           -6.62381531225446       -1.71647639892938        3.92600343139484
H           -5.59932438882054        1.07246721135925        3.89568987498453
H           -4.77753022494826       -0.29011281426510        3.11270096188189
H           -1.18130343718655        1.52233724351413        4.25493780829199
H           -1.81605913062496        3.76544472641746        2.48907872578638
H            0.49184742757652        3.17148469421287        0.69987350143935
H            3.16921972030676        2.05010084793559        1.07383094283627
H            4.65016394478635        2.63487217767405       -0.38534361107380
H            5.02487169736304        5.58592717209356        0.30650149987957
H            6.82895668574446        4.70887917127313       -1.19312633311540
H            7.43989917816136        4.94366481248275        0.44329237509977
H            7.03733092426857        3.32264886116179       -0.12748166256759
H            5.57157175796720        3.07532023450213        1.94985903049359
H            5.97255669535789        4.72549442495465        2.41793608503882
H            4.28625227295699        4.24930939528874        2.26395557411378
H            2.81314120745596        2.53470328321952       -4.80956525469852
H            2.79312155915222        4.27726526746862       -4.52673528164386
H            4.15958161828810        4.66256619202104       -6.55673589044131
H            2.66783489991815        3.77651298011274       -6.97627733506423
H            8.68094668007506       -1.31272315013841      -11.79907342273498
H            8.33304994791690       -2.46897960245139      -10.50066986813526
H            7.21674571719341       -2.28820983155849      -11.87667466796105
H            7.52392039280753        0.90421263753250       -9.24129659785032
H            8.41296272465523       -0.57721183685974       -8.80635463276797
H            8.90702287407225        0.38387837638006      -10.21224375149246
H            4.99660236893053       -2.38760401816104       -8.48649071001983
H            6.22849400011618       -3.16507218326511       -9.48675769465627
H            6.70243655407226       -2.04607258203117       -8.19630244970150
H            4.98060804112868       -0.67566425479071      -11.88789771606370
H            5.08900557151956       -2.40281148767082      -11.50446491488135
H            3.87588409322914       -1.39787628260208      -10.71340260218006
H            6.17569333869737        1.59651756773065       -6.87524332245179
H            6.28846516002506        3.34161678050032       -6.53204466171545
H            6.49685522677930        2.10328027798135       -4.42838056038267
H            4.98419909628052        1.23792219790698       -4.72138743228632
H            3.77117020756664        5.52649853324934       -3.19905760314914
H            3.54442598185949        5.85785118140118       -1.48799746116384
H            5.17438351675094        5.93846428199917       -2.20835407853798
H            1.53257561335906        0.69688607530468        2.17316153557533
H           -0.17909946395531        1.14299961197435        2.04832044802922
H            1.68650822126879        0.42661673740242       -0.26559133510560
H            0.65438422326963       -1.45981740207120        1.12706983823459
H            0.14778271071285       -1.43378862815035       -0.58643439748685
H           -2.07992685826680       -0.62101796679770       -1.11467657341354
H           -3.07489830800335        0.08187100287615        0.19304108476909
H           -1.58430363341986        1.95731536651826        0.46048662931878
H           -1.90454113060960        1.80761427729618       -1.28857831330896
H            0.91112925107712        4.96796236953502        4.65600773389488
H           -0.72901379072536        5.44618991087266        4.15258503588967
H           -0.83080080335471        4.55777392998739        6.45933160503743
H           -0.01588438667882        3.07224567422909        5.94667701987272
H           -2.74056905644962        4.05835604156197        4.96336066062960
H           -2.46016095183121        2.66476905269881        6.02064307284442
H           -2.76164005601636       -5.09894352382562        0.79554929371430
H           -1.47991972540637       -3.24422033041326       -0.18225872251427
H           -2.43920943230085       -0.70237910313444        3.09508092212429
