151
 energy: -221.322617041453 gnorm: 0.008049959074 xtb: 6.7.1 (edcfbbe)
C           -9.60951661619977       -3.50428296823863        5.01385319460726
N           -8.34808098771096       -4.43485957291084        7.35273623046793
O           -8.45008903024636       -5.65065426536627        4.67001992099108
C           -8.28427372609983       -4.26324484849081        4.95594363523491
N           -5.04039821437984       -4.58189964917505        4.27538079673356
O           -3.67455302365437        1.03178198492828        4.49400371259353
C           -8.98872449269983       -5.94094399735226        3.39902092608743
N           -0.85710354179874        2.40432437030737        2.74741318878788
O            4.31741258666122        0.07458000769095       -9.59232355518209
C           -7.57734014895270       -4.21892610166715        6.29705320914050
N            0.44934719097661        2.78201563091300        3.07334390068032
O            4.14463649600331        0.45091728520859       -3.39446367273517
C           -7.81149122897942       -4.44155672982407        8.55984168687533
N            2.39055912536802        1.44426249654262        0.27884137647072
O            2.03233265115271        3.35682377392796       -0.85252566366081
C           -6.45990262372563       -4.23519154375357        8.78729294312174
N            4.02682081245618        2.58743660280900       -2.68522243959322
O           -0.52961135385488        0.21940396957169       -0.75452390830716
C           -5.64806200563382       -4.00292608170822        7.69235944806678
N            4.52511346455809        1.57359882625291       -7.90325454603274
O            2.63737563051092        2.75860863369597        2.57177255512171
C           -6.19828028621901       -3.98957770312289        6.41002324573799
N            9.46233652196667        2.31648832584653      -10.26051783297022
O           -3.54572183944910        2.00808565711870        2.48077347898947
C           -5.32395941435285       -3.67667874358728        5.27452079144020
N           -1.77842373235853       -1.39341536497793        1.16663271608375
C           -5.34679236544263       -5.99063248882751        4.28255854777818
C           -4.19781576552503       -6.80253189469679        4.88030467076452
C           -4.66038663718412       -2.49002570405033        5.04766818134169
C           -4.66933920770743       -1.27571300676387        5.92177580476796
C           -5.58397163657680       -0.11125670149021        5.47491589508610
C           -5.68238440725233        0.89380068906684        6.62709718425414
C           -6.97871069211996       -0.63471885998192        5.13157394895074
C           -5.02251499052713        0.60329083986049        4.23970049135318
C           -3.04104250942914        1.67572979992165        3.53000957919402
C           -1.60088473604953        1.96582145986658        3.92329518421232
C            1.49240812531410        2.40051528768926        2.31850501740372
C            1.19198011034828        1.54542121570125        1.08296895774764
C            2.74027701412603        2.39110979595126       -0.60171343026305
C            4.07887700088749        2.11915549674815       -1.30271531159363
C            5.28503619696173        2.69631229079276       -0.52834830692671
C            6.55718926943536        2.50465404368899       -1.35460000634590
C            5.43236536660433        2.00712701219186        0.82586236144821
C            4.01357863683772        1.65245032423817       -3.64200644524692
C            3.91985890340036        2.04939641990387       -5.12639916333426
C            3.23881393871395        0.93116062950583       -5.91871679362916
C            3.19778127709804        1.30124072305683       -7.39733628283482
C            4.95820808348092        0.95913389365246       -9.01781021398533
C            6.21073706024552        1.40370686333348       -9.57112534088714
C            7.12073287559331        1.64657791856478      -10.32539855704495
C            8.30589832228639        1.99616973691588      -11.11072309295678
C            9.27503954271551        3.50445094925005       -9.44698660730483
C            9.90337106551848        1.20136062048545       -9.44045583228441
C            8.63799899650915        0.80262457216655      -12.02256439359259
C            7.95501116585318        3.20048092867553      -12.00179428615237
C            5.25219998100180        2.60055037577545       -7.19738390808621
C            5.32249544969982        2.28984549751815       -5.69779938467817
C            3.86471808936253        4.00961140277979       -2.91101683120717
C            0.66670349236500        0.14878511810176        1.40495407321375
C            0.22903244938515       -0.59405181851035        0.12740438040868
C           -0.57682425393006       -1.84846786843602        0.50344125037296
C           -2.59534504519581       -0.62916806401373        0.24115341709404
C           -1.79976901504460        0.58277838765103       -0.23504531025888
C            0.62040741019404        3.75752464410723        4.14427051257223
C           -0.11414204994378        3.30016134092981        5.40139051983132
C           -1.57203954589432        3.00398391747499        5.05891000339404
C           -3.92405557558615       -2.67169554494620        3.84089756250747
C           -4.17459839303467       -3.99442631650079        3.39782969011166
C           -3.58331014475389       -4.49151236034882        2.24084722253258
C           -2.77646685878267       -3.65051082616224        1.50473579602271
C           -2.53284389505744       -2.33415794043765        1.92099612278325
C           -3.07421666075555       -1.85855349804039        3.09811429414141
F            3.15156490953648        3.20359997842786       -5.30661469093580
H          -10.06941424811187       -3.46114555417221        4.03054497480884
H          -10.27613338650430       -4.00395358346179        5.71017555632836
H           -9.42896544862558       -2.49115471886463        5.35856820424851
H           -7.63714007195874       -3.81730930664385        4.18157569080152
H          -10.05084789318852       -5.68847815260648        3.34235248311343
H           -8.44436096034912       -5.40705008876076        2.61244517266597
H           -8.86745452664366       -7.01384868304432        3.26557345878327
H           -8.50150679452271       -4.61826092892749        9.37342146727728
H           -6.06055802893240       -4.25510777683229        9.78792202020725
H           -4.58719290692262       -3.84151641533971        7.81554919442613
H           -6.26170868639961       -6.15331708653958        4.85410235249264
H           -5.52477632496519       -6.30289624608311        3.25106441546882
H           -4.07750911449857       -6.56148027324089        5.93720567144095
H           -4.40604659084039       -7.86803483484010        4.78484466922411
H           -3.26465125261605       -6.57479008565030        4.35824986062189
H           -5.00038753119122       -1.57586223083883        6.91691431342467
H           -3.65022254745134       -0.89416624850821        6.00106576934048
H           -6.11821743276437        0.41974367680356        7.50266411734976
H           -4.69645750786758        1.26882365687068        6.88768617334328
H           -6.31045001321362        1.73565732283554        6.34538963109109
H           -7.38190024095386       -1.18522492625320        5.97845312703451
H           -7.65073779380999        0.18716350997978        4.89815211240585
H           -6.93836039521482       -1.30314680982198        4.27525216275194
H           -5.62797015733093        1.48117178355574        3.98960098157572
H           -5.01382522621963       -0.06301746748358        3.37017952532226
H           -1.14584154497332        1.03362325402087        4.27951584905301
H           -1.35980393594407        3.16822408531465        2.29290172179462
H            0.45989585161502        2.09329626867162        0.47820330702598
H            3.05429245015963        0.72926574783605        0.53290436942297
H            4.21022626078141        1.03362142493873       -1.37503005617259
H            5.12464053899267        3.76306749285095       -0.34715483689438
H            6.67278493217356        1.45583879056367       -1.62102924878384
H            6.52575434709578        3.08857848148068       -2.26925140503633
H            7.42474090914436        2.81389191277609       -0.77784588681425
H            5.52219293333380        0.93052566341868        0.69832800059782
H            6.33377008865027        2.36476417135852        1.31613635646713
H            4.59079131813443        2.23082687804705        1.47675066964587
H            3.79731682798536        0.01066316744567       -5.75829764077806
H            2.22494262279417        0.78629551594269       -5.54755485058760
H            2.57872026124969        2.19680453960039       -7.52858403742681
H            2.77723196983385        0.48622169157698       -7.98820816842979
H            9.16674326700438        4.37779602808453      -10.08366480055903
H            8.40166043342084        3.43413915984097       -8.78097356720068
H           10.16436763120302        3.64298527789471       -8.83610973285151
H           10.75264118625649        1.53044405733348       -8.84532621824795
H            9.12048775692035        0.83251379733600       -8.76094206196423
H           10.23503087198861        0.38262023619874      -10.07260793892260
H            8.64606945902234       -0.13132636593884      -11.46814289341288
H            7.88432214599840        0.71758486567531      -12.80048884402985
H            9.60875602801135        0.96271632245744      -12.48080063467405
H            7.24786005764379        2.89221482822047      -12.76626584495211
H            7.49811856081026        4.00240216205570      -11.42991474691230
H            8.86076141969498        3.56243198811769      -12.47847094019283
H            6.26200347387926        2.66355625726614       -7.60985258931897
H            4.74722060276777        3.56433965540492       -7.34024863190037
H            5.80707922626929        3.12109507612659       -5.18545229837830
H            5.90219729912709        1.38283706164124       -5.52118971545952
H            4.50681668243666        4.35234365377021       -3.71970203663962
H            2.82810889364930        4.25154984175383       -3.14524148043995
H            4.12903840933426        4.53443082968798       -1.99938827303334
H            1.44584629445590       -0.43364341977932        1.89658109410807
H           -0.19251778662279        0.22655317318599        2.06752438627918
H            1.10343303220835       -0.87212359869864       -0.47003664166534
H           -0.00434838441144       -2.47843180021135        1.18597206586185
H           -0.78734907774994       -2.41373741148607       -0.42310014972454
H           -2.89585269677698       -1.24515159677889       -0.62616704309804
H           -3.49321760464062       -0.27970411099985        0.75289961895030
H           -1.69136867395465        1.28349517816927        0.60073188866263
H           -2.31382951966978        1.08062773947567       -1.05848411461125
H            1.69266434935578        3.85224698651926        4.31833777605014
H            0.22827183198607        4.72450252280845        3.80488357034187
H           -0.05269247715782        4.08252042566309        6.15641083843937
H            0.36090536152157        2.40022368000069        5.79433222546396
H           -2.07266308868548        3.91769023851669        4.72465391858127
H           -2.10528373812405        2.61437899063180        5.92627560051589
H           -3.75795986565531       -5.50409284611865        1.91022943295348
H           -2.32968479561214       -4.00909370513682        0.58935672557830
H           -2.82272987690781       -0.86152207208511        3.41502298929871
