151
 energy: -221.325065527716 gnorm: 0.009127441366 xtb: 6.7.1 (edcfbbe)
C           -8.41899561280384       -4.54647707019273        4.44459555766767
N           -6.41728202326302       -6.15682484878110        5.57235333475180
O           -7.29727222426746       -5.89182640716546        2.71550921549384
C           -7.13308664124046       -4.84938362566210        3.67589923847369
N           -4.14641024951693       -4.27530070083205        2.14333928427436
O           -3.30152728529516        0.91088345158735        4.48019868098257
C           -8.11346564173398       -5.55437514878150        1.61492193027084
N           -1.06495502949397        3.42779647382279        3.28374922593712
O            4.51367885099143       -2.30680269630905       -5.62619898727828
C           -6.04328901148005       -5.31136110710837        4.62237633967735
N            0.19608030227303        3.90104695354723        3.66109174501906
O            4.83505414038997        1.96791825885353       -1.07354411142044
C           -5.52399702731941       -6.59608027958068        6.44069969755132
N            2.30450026700953        3.47120356615314        0.71012546523039
O            2.10454651258634        5.65871758158066        0.18023470025551
C           -4.19497457923902       -6.20030797789954        6.42528067921530
N            3.90129160532188        3.90180154030862       -1.75777867429854
O           -0.51069452557094        2.56453090805727       -0.89527196517297
C           -3.79539878768270       -5.32016573841767        5.43628003408702
N            4.07129518060770       -0.11287892094305       -5.24957714614092
O            2.36785112797378        4.22053518534734        3.20668239373056
C           -4.72167900540633       -4.86341602348054        4.49839805337416
N            6.51989141632459       -1.79444215724365      -10.14104054122941
O           -3.72778714343328        2.70005157857922        3.19470324033826
C           -4.25375271409139       -3.92529113295326        3.47138077183918
N           -1.70891246406713        0.32585582172645        0.27755483104218
C           -4.34470720155064       -5.59993004945801        1.60968396673376
C           -3.06306231496295       -6.42790953023561        1.69365220346233
C           -3.77020547668213       -2.65189279624593        3.67216544461012
C           -3.71016211972007       -1.90787506934355        4.96631212046046
C           -4.81425859327040       -0.84464655112873        5.18292209424316
C           -4.74954984268985       -0.37107474591826        6.63758285741659
C           -6.19244568523451       -1.43278545373947        4.89052884270589
C           -4.60625734963245        0.36129804101398        4.25648818078569
C           -2.98194319533429        2.04411534766000        3.88560986838455
C           -1.55576416503576        2.43685760746480        4.23868597283974
C            1.25608332978867        3.84374173658105        2.84466807032682
C            1.04029913547173        3.36016406865172        1.40370317386562
C            2.76161678814698        4.62936915205367        0.21539882888627
C            4.14478227219952        4.48541452856793       -0.43686201449242
C            4.92386208538347        5.80668666755067       -0.43506949936308
C            6.19071101015579        5.68998907415160       -1.27776114992545
C            5.26555816375962        6.14421688173921        1.01652403556650
C            4.19396610219296        2.60311529217339       -1.91374744231550
C            3.74009757324503        1.85774899648984       -3.18343429479708
C            3.63994051978343        0.35882646610388       -2.88615279067461
C            3.19292840761044       -0.39364601256252       -4.13635827653491
C            4.64494992244503       -1.11714215534937       -5.93256671449373
C            5.41354389851946       -0.75847566668591       -7.09314660441534
C            6.07843436797746       -0.61809306430178       -8.09004600197713
C            6.79769187049324       -0.57427316214093       -9.36038384854669
C            6.94883796559149       -3.01806968430519       -9.48601231897600
C            5.13507533023338       -1.92612480470441      -10.55972418730374
C            6.37098888775650        0.67225636389638      -10.15203771620183
C            8.30524718678874       -0.47177298317237       -9.07151323633042
C            4.20841776640590        1.28753124738930       -5.57880683811876
C            4.69651744068545        2.07756435908100       -4.36041949961770
C            3.09615699440820        4.69467403381621       -2.66726688040009
C            0.52318568575459        1.93245825403206        1.25506148327690
C            0.27067775640915        1.58849698264881       -0.22576739472646
C           -0.39909729784328        0.21083767247903       -0.32733089120816
C           -2.52864631170723        1.24630620786153       -0.48559459206478
C           -1.85646992965745        2.61902118351944       -0.44548515450079
C            0.30976764416721        4.46186295127157        5.00153122592682
C           -0.12638302236824        3.42279767325411        6.03162490282290
C           -1.53755138699004        2.94774208441238        5.69371989299393
C           -3.31417273696798       -2.19605225358086        2.40137804655936
C           -3.55993173047950       -3.23948002208599        1.47285131785851
C           -3.20805681651129       -3.10716013836178        0.13295322562585
C           -2.61315374289234       -1.93203035986691       -0.27281039891666
C           -2.34186207537151       -0.90162925597548        0.64028440241224
C           -2.67562416767537       -1.03649505828323        1.97048030459950
F            2.45874415184044        2.28710572819898       -3.55419224983269
H           -8.82519906544098       -5.47394348145683        4.83621370446973
H           -8.19490264467806       -3.88321196618422        5.27509538914210
H           -9.15091536857214       -4.06496258392224        3.80142585795859
H           -6.78893490761267       -3.94390463064284        3.14971396986994
H           -7.97967866665719       -6.35715881849041        0.89378256647696
H           -9.16766438456293       -5.49115319717982        1.89865060696753
H           -7.79806318517318       -4.60217866294226        1.17440593062753
H           -5.89953991671768       -7.28248737544576        7.18675021437559
H           -3.49781115002225       -6.56962913787819        7.15957035658245
H           -2.76934402575675       -4.98629729511133        5.37293668001925
H           -5.14335970560647       -6.09084345518184        2.16977693188625
H           -4.66372140135441       -5.50515291162406        0.56864452348333
H           -3.23615205504573       -7.41879997368953        1.28402522753622
H           -2.26224356254428       -5.94904317969809        1.13470343112888
H           -2.75089567151900       -6.53032164968363        2.73061262493590
H           -3.78671262963690       -2.62757583994629        5.78335012036155
H           -2.74357211114961       -1.40618386515284        5.03939496051807
H           -3.76710359975721        0.03685377035889        6.85712747786623
H           -5.49434672812766        0.39982310214733        6.82017283491511
H           -4.94129077452039       -1.20065564429502        7.31265977086061
H           -6.27617358906681       -1.70576903535452        3.84133699112277
H           -6.35060252385852       -2.32405273547605        5.49213514525861
H           -6.97313192861006       -0.71274637894645        5.12238495606676
H           -5.35450410819962        1.13664053951133        4.44798084999545
H           -4.68157449268729        0.06388756287527        3.20661289106805
H           -0.91782254238625        1.54923713775164        4.16211326690661
H           -1.73628959971175        4.19773571131016        3.22621757446001
H            0.35092648392074        4.06336699168212        0.92220918545706
H            2.95206384638144        2.70552997906085        0.83575797218483
H            4.73261647370508        3.74548398207051        0.11504988275689
H            4.28369289948856        6.60508792564263       -0.82296405684563
H            6.78759541655098        6.59108487766583       -1.17507070676112
H            6.78418958368753        4.83983551280979       -0.94280755476176
H            5.94943235165546        5.54804358325179       -2.32839022021144
H            4.36231264612317        6.16157791690316        1.62467561128762
H            5.94359073976984        5.40262982644274        1.43384901419228
H            5.73863721731120        7.12141192093489        1.07707792824896
H            4.61620424588615        0.01024820016032       -2.54841032149776
H            2.92030822024727        0.19186858267848       -2.08289705732125
H            2.17425222022193       -0.08569410624344       -4.40093179585450
H            3.20897656336825       -1.47087156081390       -3.96372549984061
H            6.74164459971142       -3.85171370587051      -10.15529991128961
H            8.01819356305711       -2.99362150913088       -9.30112406635836
H            6.42481789601317       -3.20074003817293       -8.53480443734301
H            4.43892305189472       -2.02568881199897       -9.71062072344831
H            4.84003423683924       -1.07473000389822      -11.16786383155992
H            5.05572823992676       -2.82118906308834      -11.17517725416492
H            6.76148285087906        0.59725731030189      -11.16605370043070
H            5.28775168006302        0.77072219048448      -10.18590835739008
H            6.77645148815539        1.56491268867938       -9.67779625533959
H            8.61001645371391       -1.17625624638041       -8.30054152140393
H            8.85678722299118       -0.67270425601686       -9.98649870474794
H            8.54211189264977        0.53012507185100       -8.72340460747332
H            4.91251912204467        1.39098642098656       -6.40469921064122
H            3.22959691249708        1.67510422736522       -5.88626080626672
H            4.75375622450787        3.13536985972991       -4.61986368128776
H            5.68733415865772        1.73799274077883       -4.05233808465257
H            3.21011228600635        5.74026494434679       -2.39685322608337
H            3.42138980713960        4.55416579948105       -3.69460711921483
H            2.03785952116253        4.43648387656838       -2.58589129256163
H            1.25942224636393        1.23254274338238        1.65054610431632
H           -0.41035179905659        1.81480325493335        1.79710842904103
H            1.21682307061263        1.59010879261659       -0.77856509644284
H            0.18255416764855       -0.53244099213216        0.21977147893288
H           -0.44667980145789       -0.08484449096921       -1.39178247895683
H           -2.64329218246126        0.92205461796393       -1.53733376695337
H           -3.51695620504321        1.31486422820021       -0.02666736903061
H           -1.90356644847288        3.01196388173781        0.57761062196138
H           -2.35339938073432        3.31462814017273       -1.12279834116015
H            1.34970216672138        4.75764851136823        5.13955462145181
H           -0.32986101493263        5.34943450639729        5.06064233196394
H           -0.10224648409416        3.86308377522623        7.02782025427070
H            0.56553113984281        2.57817419235726        6.00776276369363
H           -2.24409493882180        3.77700591250494        5.79035668742778
H           -1.84906865079801        2.14638140263416        6.36311257123366
H           -3.38560102161927       -3.90158472533613       -0.57711941172382
H           -2.33733940592136       -1.80166779781165       -1.30924637032116
H           -2.41282176734715       -0.24465435585986        2.65033306565378
