151
 energy: -221.300295930649 gnorm: 0.006100326817 xtb: 6.7.1 (edcfbbe)
C           -7.13390152991836       -2.55038344904718        1.76180559837362
N           -7.49687411484203       -3.99358864470492        4.83362332908903
O           -8.49408792117626       -4.37347152644184        2.39008845254633
C           -7.15535879899234       -3.91906859726481        2.44127450136236
N           -3.80482082588130       -4.39048778382810        2.26748739462363
O           -1.95783772780680        1.32118661156604        3.50476325102269
C           -8.66663256477644       -5.74805202089774        2.65475426208872
N            1.21512752275633        2.78844526253242        3.61755914731369
O            1.31690135746243       -0.76621013950982       -6.91049156151168
C           -6.61152902520302       -3.83329784988458        3.86066862481448
N            2.50751128306141        2.35079355681515        3.93206138903672
O            3.56628962928611        2.80719574383222       -2.82349452109479
C           -7.11355630408905       -3.90283258327209        6.09507261196623
N            2.94905593598337        2.39325366184367        0.80231423516093
O            0.74270277107073        2.81774790929519        0.63920518901246
C           -5.80659650086739       -3.64445312768006        6.47072990605495
N            1.60010662482231        3.63183979666103       -2.11692690200480
O            2.26593396662057        0.25276278631222       -0.80617608007442
C           -4.87085768940377       -3.48123967025059        5.46542566294269
N            1.81693443172085        1.44803971488457       -6.94608874017687
O            4.45626548226358        1.31879129302512        3.49842524979245
C           -5.25691337199279       -3.57737166906500        4.12897666568337
N            6.66768394880683       -0.15160195665636       -5.72385358622940
O           -1.56068303280284        3.49386354446390        3.86746314584173
C           -4.22044927288821       -3.37891546404626        3.11101106297115
N            0.49079770916153       -1.86980522470384       -0.17998155197774
C           -4.09295863683519       -5.79195001358486        2.46069173126712
C           -3.23579091841170       -6.38140165278794        3.58166177494205
C           -3.46702453145073       -2.24574179814717        2.91148087381594
C           -3.49282779638126       -0.96206648961861        3.67828367221491
C           -4.12378231073073        0.27962098000887        2.98811375918869
C           -5.57977205649726        0.42613620625379        3.44097524827239
C           -4.07445285100812        0.20745485238813        1.46067179651170
C           -3.37655844848667        1.54894673281829        3.44539229830192
C           -1.18153526383264        2.34828777649882        3.80646845512257
C            0.21581382822471        1.87439481847524        4.16035274654065
C            3.33062669298542        1.65409719337393        3.13642734106097
C            2.79700594505419        1.29715899805596        1.73810089473242
C            1.89274765778315        2.99755401787694        0.24271349927446
C            2.23570773340752        4.00214157539606       -0.85409717930655
C            1.87642244698729        5.43335399262505       -0.40561748820160
C            2.15701457721045        6.42375926281975       -1.53215793193497
C            2.68937241767582        5.79003162015519        0.83778715212391
C            2.40038528210575        3.11587787320093       -3.06217173708071
C            1.89965698495537        3.02522096179364       -4.53155187156539
C            0.81209431300524        1.98355314978242       -4.81077003090967
C            0.56985086563837        1.81732254580303       -6.31715079737007
C            2.15022502072883        0.13757042366636       -6.99582226040714
C            3.55334437900858       -0.16129200016811       -7.08236243152734
C            4.66068327013128       -0.62906367955535       -6.97772133929766
C            6.04144420324158       -1.03755660937646       -6.72059161592145
C            6.84352754771805        1.21482601522616       -6.18160440197151
C            6.02011463756637       -0.18480738081040       -4.42496065659754
C            6.02088817912877       -2.48177718824535       -6.19180194656427
C            6.83637892038711       -1.01216469919761       -8.03457046804443
C            2.79287766547519        2.50843680026405       -6.86795899929461
C            3.13698478728704        2.79935162448192       -5.40876405287966
C            0.15616640503626        3.70895713484097       -2.20914899775089
C            3.48717778903782        0.02810005768333        1.22386399487367
C            2.63241904973079       -0.70129748277146        0.18249560600312
C            1.40165425652763       -1.35172692080103        0.82853639362851
C            0.11721049610704       -0.81476370773723       -1.10549684322540
C            1.38955738555082       -0.29239561450682       -1.76203598594937
C            2.75593218774152        2.46830635838539        5.35982480211500
C            1.78119294109481        1.54341683153490        6.09040907590361
C            0.34871901884840        1.89460150068284        5.69337253385288
C           -2.51533400623556       -2.57719734992400        1.90114893615197
C           -2.74960734915411       -3.92277701385853        1.53029823443467
C           -1.95799984252925       -4.54896408627622        0.57308320907142
C           -0.91977873259222       -3.83178390585202        0.01923831935113
C           -0.65152377340099       -2.51429323902398        0.41049081333035
C           -1.45088172169467       -1.87937304628928        1.33849840310264
F            1.36861342687694        4.29119639626483       -4.84622956064486
H           -6.11788738438490       -2.16929615310304        1.73171103649307
H           -7.51323817595943       -2.65150875390180        0.74904837788952
H           -7.78053404083306       -1.86829168873662        2.30698297859031
H           -6.52563659816094       -4.60856996720102        1.85460379784402
H           -8.40972546735763       -5.99616116813442        3.69272157797540
H           -9.72268497839436       -5.95541998346873        2.47910291365934
H           -8.05596083792974       -6.35384778202202        1.97145233790106
H           -7.89472261292971       -4.05335018880822        6.82751945280318
H           -5.52944744909675       -3.57736950219099        7.50999287026598
H           -3.83298958086368       -3.29451399822406        5.70129759587553
H           -5.14875432107308       -5.91694909589820        2.71062784849487
H           -3.89131632644383       -6.30965813676606        1.52076658423927
H           -3.52430559197916       -5.95455968165834        4.54046963952029
H           -3.37005674227732       -7.45846970969038        3.62424134910011
H           -2.18445078128622       -6.16314316359231        3.40468126379645
H           -4.01752081546351       -1.11928620339078        4.62192140090461
H           -2.45209799697997       -0.72782906095137        3.90793862658838
H           -6.05127057304212        1.27383867286853        2.94938441824808
H           -6.13709519692285       -0.47162138506331        3.19709725508197
H           -5.63416608112703        0.58048957514290        4.51673044149622
H           -4.65500882808477        1.02412575651922        1.03498718886687
H           -3.05316700522999        0.29314875251445        1.09944944202022
H           -4.48695294165228       -0.73153025479839        1.10059621210250
H           -3.69446337388834        1.85007662581454        4.44836842455061
H           -3.57072686248310        2.38318721235001        2.76525058965471
H            0.33657543012849        0.84135728363748        3.79168017117616
H            1.08117517409033        2.93694576798646        2.62112562270097
H            1.71903273360947        1.12087511234168        1.81003695336931
H            3.86087449714301        2.50114919867975        0.38169560440985
H            3.31155646471050        3.95897967622448       -1.04818955901731
H            0.81743374113379        5.47211973953101       -0.13520423058085
H            3.20346242488436        6.36959773126239       -1.82557274842778
H            1.54615505980334        6.21398967277314       -2.40613559978808
H            1.94294502009359        7.43465843832346       -1.19619284522495
H            2.43756119607429        6.79591358212868        1.16284652368042
H            2.47274221445121        5.10483968202753        1.65421974256528
H            3.75483352471144        5.75223122311610        0.62376863288918
H            1.14209532320213        1.02389234875885       -4.40924337203743
H           -0.12229088810583        2.27051494004813       -4.33596306317072
H            0.21197487336625        2.75066492963106       -6.75524590673879
H           -0.15778534364734        1.02335591869131       -6.48984224375951
H            5.90006299495044        1.69386912601719       -6.48141169384690
H            7.27663760202730        1.79506446775628       -5.36884716210078
H            7.53805289705103        1.23697852326234       -7.01684095708098
H            6.50964349043177        0.53611822271512       -3.77258135375717
H            4.94872462364031        0.06849361404932       -4.46178374852890
H            6.12970315716505       -1.16967969299081       -3.97838536956330
H            5.28134516059210       -2.60652386457315       -5.40525387066224
H            5.76615022532701       -3.16335841230484       -6.99845967224437
H            7.00481845204322       -2.73351140245931       -5.80706475322137
H            7.88653010328056       -1.18252323042026       -7.81725212018553
H            6.47485709900153       -1.80013524705352       -8.68961721258829
H            6.72109504020775       -0.06577700151290       -8.55411315449994
H            3.69272396367963        2.21976272597295       -7.41260788172435
H            2.36042597898289        3.39568076976926       -7.33690267871050
H            3.77771259813253        3.67862590558740       -5.33694384184207
H            3.68155749792304        1.95475501929442       -4.98361565839756
H           -0.22165489972764        4.20383330815284       -1.32044254463507
H           -0.15527555153103        4.27083781872991       -3.08808536385369
H           -0.27571592482737        2.70634640325974       -2.22655918593965
H            4.44482024823237        0.30266629250056        0.78236553585093
H            3.68396283425328       -0.63990619026453        2.06172376680124
H            3.22601203418719       -1.49377285440859       -0.30112962573936
H            0.89847169213117       -0.60830683041415        1.46981293850686
H            1.72586251782355       -2.18609381127132        1.45499828005857
H           -0.55494023955633       -1.22668065854264       -1.85891818065507
H           -0.38629574612372        0.02809844354885       -0.59582771250279
H            1.16652817852669        0.52729373417789       -2.44453441729660
H            1.88648194269477       -1.10632492351469       -2.30885742390022
H            3.79257432827339        2.18638481066697        5.54229471564438
H            2.58575319998517        3.50625603040547        5.64751259818261
H            1.90571121972066        1.65309737975391        7.16588917108836
H            1.99828533660145        0.50799965981951        5.81972249806883
H            0.10469346320537        2.90153765820081        6.03356280700524
H           -0.35791093584146        1.18978145907417        6.13103267445668
H           -2.13316054080387       -5.57001052579781        0.27218446102534
H           -0.27721857307629       -4.27987154788832       -0.72170355201759
H           -1.25138040580178       -0.86300313787828        1.64542067738371
