151
 energy: -221.325888411609 gnorm: 0.007234226602 xtb: 6.7.1 (edcfbbe)
C           -8.81113326344125       -3.82876771744335        4.36575555560005
N           -7.32156127712133       -5.86279418642270        5.60912927979496
O           -7.88338462299499       -5.40362138695146        2.72082051713928
C           -7.56692415987283       -4.41474187372401        3.69980166946224
N           -4.46416041314240       -4.50007094316347        2.42067679603417
O           -2.94976846677391        0.50034393156466        4.78633551459573
C           -8.44317663188676       -4.89738098339973        1.52885399564368
N           -0.65951915043181        2.90694142351498        3.53072158599731
O            7.14688300266250        2.47121992112826       -7.79968708914916
C           -6.68827661664248       -5.10929430003982        4.72269499878391
N            0.65976055904448        3.31056492814643        3.75706573663912
O            4.21171643996420        2.40406220225347       -2.24899566343891
C           -6.62619859356602       -6.50531235896093        6.53071422114949
N            2.14529721642597        3.31994604445656        0.42834275036493
O            1.30302029497368        5.31495601018788       -0.20283439041631
C           -5.24773171674888       -6.41764057232638        6.63709265989897
N            3.18672905088879        4.39535357872082       -2.45840900229372
O           -0.81141346297606        2.26350641612018       -0.63611873153686
C           -4.57669208723903       -5.63703729621408        5.71363169256658
N            5.12608378613410        2.16477208285285       -6.81152668334359
O            2.71237916651220        3.72747816420173        2.95811910075884
C           -5.29268763206353       -4.97208000164983        4.71879031758750
N            7.92470317857579       -2.39887040499395       -9.12923729172602
O           -3.34807683021486        2.49102256881939        3.83251553865527
C           -4.56668328721131       -4.14390746078761        3.74800726753521
N           -1.67893409785965       -0.08946689987649        0.62014771552305
C           -4.85094037799885       -5.77108423852140        1.86140647025517
C           -3.76169340384812       -6.82251920547637        2.06575217938587
C           -3.89918056814046       -2.96269567117958        3.98247332951790
C           -3.71052650131576       -2.27685774860385        5.29864837893712
C           -4.62843172699588       -1.06781667389005        5.59000615649268
C           -4.39987153231235       -0.62408528216754        7.03765517179131
C           -6.09260467828351       -1.45664186673990        5.39477477666363
C           -4.32490090168977        0.10744422240534        4.65449216195394
C           -2.58985784425910        1.67873019363652        4.31924924873148
C           -1.09986368724297        1.91436704157584        4.50550057334103
C            1.56011126836856        3.35563576435813        2.76476936743266
C            1.08323332706530        2.99080364130776        1.35355403211773
C            2.20260691480771        4.48192648912235       -0.22581206470728
C            3.47861568093891        4.67328625119534       -1.05166210774067
C            4.07110244883724        6.07502855406408       -0.83184538857787
C            5.35869695284883        6.24746643119716       -1.63194324343472
C            4.34655674495779        6.26566314726632        0.65908499489399
C            3.65189436155134        3.24425390853949       -2.95900163946008
C            3.65523492368716        3.00181150123599       -4.48113029192128
C            3.91618617353093        1.52609138975221       -4.79258293244202
C            4.07665605995083        1.31632848390708       -6.29910445166818
C            6.23272288754690        1.72464321248684       -7.43700720149477
C            6.27499215264530        0.31745389600144       -7.73187457273175
C            6.38516060500998       -0.81590675357484       -8.12584096194469
C            6.55223612257256       -2.17169442805844       -8.64593028670672
C            8.29935605963981       -1.54789197551813      -10.24551165990908
C            8.93045926652360       -2.31527654517604       -8.08478879595278
C            6.20544251049900       -3.18910822229364       -7.54664563374605
C            5.55147651190832       -2.35392111259428       -9.80192111511038
C            4.91103361896010        3.57509800719264       -6.58726398849306
C            4.75430463272267        3.87432889990458       -5.09697110622424
C            2.33477896283461        5.35413979355982       -3.13347659380096
C            0.68153054009121        1.52632504773460        1.18442733108926
C            0.11359144844881        1.26856382901281       -0.22422298755955
C           -0.55071000370818       -0.11597542797147       -0.28571900813012
C           -2.65867143515822        0.88567391950707        0.16928508695405
C           -2.00650404729294        2.26461404031712        0.12932218249911
C            0.98922261099255        3.78302397986296        5.09442148206513
C            0.62385865562690        2.71614151044877        6.12159063599069
C           -0.84921954110851        2.34966021707255        5.96279378787953
C           -3.35594501986883       -2.56176244033148        2.72692971250900
C           -3.71379599054481       -3.55478815899695        1.78017735958711
C           -3.31332161711971       -3.45823964553740        0.45125874511078
C           -2.61417408980901       -2.33740092257025        0.05550666361504
C           -2.28516147996164       -1.33129699293778        0.97378420451363
C           -2.61616493811434       -1.46180817504997        2.30722667996271
F            2.42859647158526        3.32572089252814       -5.07222809541676
H           -9.39432637701946       -4.63616895805387        4.79660955849044
H           -8.51202497594188       -3.14530594288421        5.15441804837001
H           -9.41438485112249       -3.28609676481173        3.64393922280365
H           -6.99014413596692       -3.61270509417489        3.21013840321652
H           -8.49684066799396       -5.74305245246123        0.84588920321875
H           -9.44777503519171       -4.49701643196849        1.68878516234105
H           -7.80464011661625       -4.11526323474128        1.10085472703852
H           -7.20949528907812       -7.10725361973481        7.21390400488711
H           -4.71984560024044       -6.94393711828352        7.41500807951155
H           -3.50123787726565       -5.54152603955094        5.74321757381036
H           -5.78174022899424       -6.09950135751165        2.33013797858739
H           -5.03683776962078       -5.62732023280765        0.79498657213646
H           -2.82533318108480       -6.48836945653012        1.62405425457150
H           -3.60281890758638       -6.99877104034527        3.12695368199980
H           -4.05776088504202       -7.75694089268346        1.59894817229165
H           -3.88054425881346       -3.00704780317823        6.09163192864003
H           -2.67597950793512       -1.93523437532670        5.36254289239500
H           -3.35442405855963       -0.38492443863388        7.20193504750576
H           -4.99084821762872        0.25833380144153        7.25963291284975
H           -4.69060912064519       -1.41171521214646        7.72465783802365
H           -6.74952277292777       -0.63670369999883        5.67291175753384
H           -6.28128658109189       -1.71297514881948        4.35638271913136
H           -6.33084054038708       -2.31946223217239        6.01106386227000
H           -4.95741659602606        0.96850367263136        4.89036692370879
H           -4.50017677801101       -0.17216203216023        3.61188672246830
H           -0.56218406781742        0.98033556130432        4.31207055199326
H           -1.29423259609216        3.70633521172419        3.56235213044573
H            0.24327981562892        3.64755258977703        1.10334689748218
H            2.95420897549785        2.71763835422676        0.44581934614104
H            4.21783594766019        3.92773579464489       -0.74392680400195
H            3.33637201798663        6.82205335300753       -1.14308260858743
H            5.18839973682231        6.11452206883495       -2.69735023824466
H            5.76298097155595        7.24305950082001       -1.47057320985650
H            6.09928919844696        5.51773525661634       -1.31137996609892
H            4.77728270922249        7.24773947589756        0.83451050898040
H            3.42813048131219        6.18420859411950        1.23710807491966
H            5.03970136473768        5.51024985717837        1.02227228139398
H            4.81171725829430        1.21818952290040       -4.25665137755598
H            3.07746643767209        0.93414928761426       -4.42496834421491
H            3.13765744451256        1.57498884991001       -6.80104276527329
H            4.32131688528425        0.27540099200962       -6.50887290791971
H            8.25342698154281       -0.47529106781182      -10.00169292353682
H            9.32217852464105       -1.79043114126771      -10.52919343649133
H            7.66043138291199       -1.74665508815381      -11.10107987107662
H            8.97944356383004       -1.32010926718720       -7.61661148367857
H            8.73943489533762       -3.06045891424987       -7.31811053310567
H            9.90008270191376       -2.53377259598875       -8.52857468514816
H            5.13709557948037       -3.16576088556864       -7.35146348107904
H            6.48484313747233       -4.18208735448464       -7.88549763616591
H            6.72069661442908       -2.96665348319147       -6.61592838572112
H            5.59816608386579       -1.52530340883811      -10.50268316607251
H            5.77490698060768       -3.28181797168990      -10.31999476602807
H            4.54074958884213       -2.39933225701513       -9.40578266716381
H            5.76589968096182        4.11638943626168       -6.99718239867505
H            4.00087612246955        3.87879383701799       -7.11625180236710
H            4.51435862845551        4.92974874222387       -4.96780305240638
H            5.68449263671111        3.65739933667719       -4.56969035767330
H            1.69844025820200        5.82098491913199       -2.38321379432588
H            2.92221586993716        6.12653321955878       -3.63231520414389
H            1.68803623907306        4.86814468013328       -3.85565857896471
H            1.55347645807628        0.88904242243112        1.32786686794840
H           -0.07765273132380        1.26701493276069        1.91753185107271
H            0.91715416776841        1.33405230021693       -0.96700002447188
H            0.14916337762321       -0.88637289416570        0.03752564067020
H           -0.84676015541692       -0.31103224087576       -1.33101284775296
H           -3.04884584392320        0.62754646784456       -0.83182326222413
H           -3.49197153605717        0.90623842531025        0.87417039176664
H           -1.80887604231382        2.59751768852517        1.15497394247709
H           -2.65968399313973        2.98564775692007       -0.36373261876984
H            2.05617384281507        4.00440768642592        5.10202967699985
H            0.42921379428304        4.70493394153287        5.28765696286488
H            0.81496353857246        3.09780559366083        7.12307840984705
H            1.24453089238329        1.83327122738569        5.96192238848455
H           -1.47690011753581        3.21506781213009        6.19270079444610
H           -1.12063762218037        1.53678131204189        6.63469090626166
H           -3.55808439647478       -4.22797404850824       -0.26411988782092
H           -2.32556803942391       -2.23285313019692       -0.97935247625715
H           -2.29820822873363       -0.69632781871591        2.99211804292787
