151
 energy: -221.326645596952 gnorm: 0.009707481558 xtb: 6.7.1 (edcfbbe)
C           -8.42575060007724       -4.30529620340759        3.24140592549581
N           -6.85996417009669       -5.93965830443335        4.94784011534675
O           -6.96528517250833       -5.69928656513088        1.82891413794180
C           -7.00157817324629       -4.71664411111151        2.86465483004401
N           -3.75634263959346       -4.35387154705354        2.14595169291905
O           -3.28801634180758        1.04657309166178        4.14463559648843
C           -7.58373636087811       -6.94186987135767        2.10656646665143
N           -0.91314689716199        3.51756359756334        3.20323452746375
O            1.82357932388694       -0.72467657771689       -6.47181873480391
C           -6.22132480832026       -5.14866513730404        4.09464148396112
N            0.20262376750728        4.12396865498258        3.78684415953713
O            4.87686068607930        1.96572841507591       -1.14182600754490
C           -6.25183776223267       -6.33816743947478        6.05082587668601
N            2.81370680736228        3.45767428397699        1.34202052584361
O            2.28786860443387        5.43076291972129        0.40760525106851
C           -4.96804617238658       -5.94216819244143        6.39228605205286
N            4.11284189528482        4.05214630456375       -1.53515195773536
O            0.92794199806436        1.95982504298254       -0.54461171784137
C           -4.28918752188486       -5.12449459504271        5.50719342101195
N            3.40796683422035        0.56055656522660       -5.47511682712863
O            2.43382809074298        4.40482508672869        3.81119327789469
C           -4.90282033899640       -4.72676245281319        4.31979298458580
N            5.41169263115376       -1.09578910342583      -10.20276606646727
O           -3.46689848962997        2.67027314658690        2.60591388228530
C           -4.13834106675646       -3.89291456208533        3.38624547217967
N           -0.71519073631633       -0.02844688423674        0.53971547132552
C           -3.85439251884079       -5.71657040126679        1.68758384023956
C           -2.59725067242330       -6.50962174931549        2.04308613508350
C           -3.63378202014190       -2.63097622818813        3.60638431158420
C           -3.82736116355081       -1.76817644756146        4.81129436124803
C           -4.91429225190307       -0.67498739920183        4.68112524517899
C           -5.12462031509408       -0.03774447373182        6.05829935071549
C           -6.22529762821873       -1.28245255628106        4.18402357133672
C           -4.49295401497459        0.41328774929437        3.68672542686580
C           -2.88786452701344        2.14392582046081        3.53010820355834
C           -1.62378464666559        2.69016909327669        4.17241625710534
C            1.42977990483415        3.95683022327084        3.27086397098053
C            1.49783194425381        3.25959530055337        1.90764336686941
C            3.08596496731625        4.51391399687659        0.57860969549602
C            4.42522015824454        4.44639549951972       -0.15917354574737
C            5.18823520920775        5.77468712697480       -0.06291919478222
C            6.50083207337249        5.70922118605002       -0.83966191151890
C            5.45061997514383        6.08356447710409        1.41060484153554
C            4.40360074809657        2.80193497662039       -1.91495864859027
C            4.11856164872704        2.37451521623523       -3.36098524930464
C            2.70993987290063        1.78133440675245       -3.45879108588376
C            2.40814317198465        1.44646641384775       -4.91227294268666
C            3.01096468807537       -0.41043151614950       -6.32300657803450
C            4.03367305668622       -1.03280733789329       -7.11709983445421
C            4.73834072176058       -1.55323300612535       -7.94684567539270
C            5.59975604326797       -1.98947006915695       -9.04527057358022
C            4.11724691298708       -1.21163392813592      -10.85263832599686
C            5.70758564122887        0.29860981937717       -9.93624276493182
C            7.06975753406017       -1.95143534052112       -8.60144967902085
C            5.24223332089430       -3.43317872222584       -9.42837665008223
C            4.78548700657786        0.98114637954770       -5.32648397758127
C            5.11223644076775        1.32705846119968       -3.87090474838380
C            3.38755566317031        5.02914308597576       -2.32431891179149
C            1.16498750549612        1.76945781225020        1.91303089975674
C            1.38974943301332        1.14239875252466        0.52318510497647
C            0.71655948198239       -0.23551863252832        0.47448339487921
C           -1.15546410488803        0.69619696277644       -0.63592183258319
C           -0.48683459378560        2.06845532202485       -0.59936364255884
C           -0.02584599760238        4.92251336985793        4.98359697531057
C           -0.72840065707775        4.07838476367830        6.04343824177870
C           -1.99777508955577        3.47093454742186        5.44729054813421
C           -2.87741505289887       -2.29977154024411        2.44414420179924
C           -2.98125109886996       -3.39799486247772        1.55445583794313
C           -2.35891969320708       -3.38321107934916        0.31144077674506
C           -1.62309256355775       -2.27058831792812       -0.03211067755075
C           -1.48050764532178       -1.19338254220126        0.85382711840029
C           -2.09239500529019       -1.20574146106740        2.08885479314121
F            4.23336927392439        3.46990150662682       -4.22370843119561
H           -9.00845335184190       -4.15378135282802        2.33645209087602
H           -8.88834763783165       -5.07213837268638        3.85505474784631
H           -8.39590289405781       -3.37676863590581        3.80274284167685
H           -6.48326312833688       -3.86848173790458        2.40133773625608
H           -7.42577694683941       -7.54311908080386        1.21180749446635
H           -7.12446805723069       -7.43562409150589        2.97139119189362
H           -8.65634173097301       -6.82792048372197        2.28617493430019
H           -6.82846552041779       -6.99627281245854        6.68685587458272
H           -4.51457875454765       -6.27102885088618        7.31303749403318
H           -3.28194272092147       -4.79675447353377        5.71358928922712
H           -4.73041191204579       -6.17767157212562        2.14345274808400
H           -4.00645591122252       -5.70657251060077        0.60513954675379
H           -2.47436010990351       -6.55731493401173        3.12279509464174
H           -2.67653187729178       -7.52110012802517        1.65569542518065
H           -1.71692744918049       -6.03556068731883        1.61488405122055
H           -4.10406906258714       -2.40088135019689        5.65645432300045
H           -2.88215268858583       -1.27543429049617        5.04456378928149
H           -5.82661471401965        0.78957021965974        5.99143202689098
H           -5.52121705794263       -0.76996906727288        6.75594566611440
H           -4.18192141991080        0.33629036092519        6.44600174670908
H           -6.11540639349173       -1.64361355639928        3.16487011459909
H           -6.50892408333382       -2.11804523277932        4.81817908890027
H           -7.02124434699550       -0.54261025333732        4.20285793330732
H           -5.27134618128664        1.17676212592465        3.59078972016094
H           -4.30746341059123       -0.01025041880844        2.69562760897076
H           -0.97289683485478        1.85356009091776        4.44492572168936
H           -1.55303683495016        4.21724002153291        2.82627594880063
H            0.80119397698916        3.79722876367724        1.25348905759185
H            3.51227931494670        2.74904229266687        1.51074626396436
H            5.04242095893843        3.64423241355318        0.25773772972322
H            4.56013783907948        6.57069702575177       -0.47207976522690
H            7.04101038424624        6.64556304308076       -0.72251967087065
H            7.12189143394938        4.89822072289661       -0.46564518403414
H            6.32408672247933        5.54422644278193       -1.89943150767777
H            6.09382875816827        5.32720686157203        1.85435859803286
H            5.93637580271999        7.05208328985447        1.50446880766853
H            4.51790751442191        6.11082615300931        1.96993225011203
H            2.68901291800003        0.88486449173277       -2.84027328993067
H            1.95765847640214        2.46650735141911       -3.07033496777624
H            2.38757686235824        2.37307210582558       -5.49817629883766
H            1.44222180902618        0.95220582548261       -5.00535130091195
H            4.08960486216660       -0.50399275382701      -11.67838100211413
H            3.99373368876125       -2.20911715626215      -11.26670738668265
H            3.27468671216965       -0.99166757337451      -10.18069235251097
H            6.70620279443987        0.40263168620784       -9.52334203196312
H            5.67696881116906        0.83713516319610      -10.88323180690301
H            4.98593531233040        0.76836278938870       -9.24815779161044
H            7.26627127772715       -2.77026534008538       -7.91588803139516
H            7.70290796642026       -2.05878826665513       -9.47708702709381
H            7.31388341695222       -1.02358315584189       -8.09239357309106
H            4.16795662676484       -3.55968845141978       -9.53763741454895
H            5.73639517891654       -3.68877865585043      -10.36137502559188
H            5.58201437071374       -4.11190970065646       -8.65024775834246
H            5.43450930864999        0.17561904899387       -5.67262762462064
H            4.96299372712694        1.86788430423435       -5.94974926064198
H            6.12448639594017        1.72657383063218       -3.81732577213269
H            5.05204456333622        0.45098912336477       -3.22788652656432
H            2.65169199393584        4.54966469405853       -2.96269338371341
H            2.85327424840593        5.68693224833945       -1.64178124419364
H            4.06769458714050        5.61656817872571       -2.94168554817203
H            1.79620318082861        1.24961332025538        2.63424513256776
H            0.12053419427262        1.63599801876781        2.18876965411543
H            2.46145286181998        1.03343079204997        0.31727545628018
H            1.03256643098151       -0.83373353033659        1.32854515517980
H            1.01946857861518       -0.75291317224397       -0.45335327453224
H           -0.88078897607089        0.17890240740633       -1.57202629568813
H           -2.23893830793857        0.81528067028296       -0.59886310284535
H           -0.86549688858163        2.62425982138667        0.26553317353402
H           -0.70097080485185        2.63123217791604       -1.51049711597858
H            0.94857863546587        5.27324849319084        5.32374291055510
H           -0.64471928957023        5.78395401602617        4.71202450149630
H           -0.97525678763748        4.70436608233344        6.89998478803671
H           -0.05809987521241        3.28492181462131        6.37271359105427
H           -2.70283819684096        4.26136509989891        5.18720286372188
H           -2.47413479747921        2.80332731722824        6.15728471540494
H           -2.44930255869043       -4.21071267852510       -0.37404623082725
H           -1.13590400524466       -2.22809174787704       -0.99540893157442
H           -1.93886550063665       -0.37480484533587        2.75630717196614
