151
 energy: -221.318579455943 gnorm: 0.005015724364 xtb: 6.7.1 (edcfbbe)
C           -7.10120699566227       -4.98498241451797        2.79972251349934
N           -5.00865536357435       -6.77844577920575        3.16507623830670
O           -6.13699958729541       -5.49250091397501        0.60164726023640
C           -5.87965195599183       -4.92027853161120        1.88458113523038
N           -3.07331140384929       -3.98545317896083        0.19042343393308
O           -2.06601712351521        0.36468355209688        3.72474703349316
C           -6.84574304052405       -4.64821465929986       -0.27909733256434
N           -0.22802189565652        3.34455926624575        3.26933726356144
O            6.26304188804623       -1.76962496066979       -2.95731853956587
C           -4.71295043134296       -5.68283599840158        2.48152602086089
N            1.06911334998928        3.80901138353285        3.50463604238353
O            4.93704029898213        3.62494049568765       -0.85714229101806
C           -4.03556854618550       -7.47708125928581        3.72241231330377
N            2.44790140416392        4.68775919634193        0.24946584986974
O            1.41728645718302        6.48054614800405       -0.68190110775515
C           -2.70047751082044       -7.11189933288377        3.64837413353811
N            3.82993702041026        4.95965128095308       -2.29174641242424
O           -0.43754065012341        3.81849694478332       -1.08283586133023
C           -2.38128032199494       -5.97260146208860        2.93220871269007
N            5.14661677213677        0.01953365760843       -3.79706088004864
O            3.02709785332313        4.59289600876855        2.75498909758936
C           -3.39362085372761       -5.23874782805206        2.31679151648182
N            0.88372651921742       -3.09035573328102       -4.39404410187187
O           -2.82008498818717        2.47774198872001        3.82337774246202
C           -3.03608574387075       -4.02756455385103        1.56629051185668
N           -1.12862882986330        1.13977052869110       -0.51158357034878
C           -3.30451017733854       -5.11666201948447       -0.67378634011943
C           -2.01620642157587       -5.89733908846526       -0.92828279918010
C           -2.57734119947857       -2.83416649328278        2.07361979951731
C           -2.31891970086720       -2.50238635321851        3.50854871170845
C           -3.36770644513404       -1.62147705464005        4.22749212630530
C           -2.99866433770281       -1.55650689696744        5.71270576026071
C           -4.77067135662905       -2.20349381730133        4.07164076666955
C           -3.38274565113108       -0.19770093846511        3.65339706660481
C           -1.91749317443349        1.66972205000809        3.78356717700674
C           -0.44317636951843        2.02874838203527        3.86333462708173
C            1.88770337931764        4.19815918052711        2.51596244233365
C            1.37461430224529        4.17487731018129        1.07185814464554
C            2.40578083363863        5.77911839038182       -0.51885876659963
C            3.74249013912174        5.99323285262822       -1.25513922779038
C            3.94505150174619        7.40777793830686       -1.81249069359514
C            5.31012227582224        7.50922821753122       -2.49226817549359
C            3.85326309668429        8.42251344622208       -0.67438770381345
C            4.50138107139468        3.84432158066890       -1.99142898177312
C            4.75621819050438        2.78274338342985       -3.07335039056446
C            3.59963891120370        1.77935019939744       -3.13907044142403
C            3.92039938211766        0.68462400141586       -4.15852580221422
C            5.21718722861069       -1.24840094498507       -3.34891877129454
C            3.97875246207863       -1.98476118439190       -3.38215090100162
C            3.03025638604581       -2.72542083701139       -3.30600945626680
C            1.78044357728789       -3.48668017207758       -3.29741601675126
C            0.61779092024170       -1.66582374461479       -4.46914361915163
C            1.26746453487618       -3.58086692383301       -5.70563550085859
C            2.11412801516393       -4.98292831906418       -3.38523927177405
C            1.07643161140108       -3.23153271827356       -1.95128366404063
C            6.29272385541060        0.89866840566003       -3.75775456448060
C            6.06457363902680        2.04464804887086       -2.77033940745255
C            3.02341337014950        5.18397936018374       -3.47523441260251
C            0.98593965853805        2.77412262884237        0.58433985980109
C            0.54645328551851        2.80702413571970       -0.89272776620810
C            0.03054738070529        1.42797517572917       -1.31831149818650
C           -2.17092080230619        2.15921558795719       -0.56317329616243
C           -1.72771868642321        3.34841865163973       -1.41432183317641
C            1.51506701850233        3.83807345314652        4.89282092624319
C            1.40865081788154        2.43641191376346        5.48590737607820
C           -0.03195725574307        1.95460041339133        5.34836514062559
C           -2.29802757105638       -2.00849229172382        0.94485483910986
C           -2.61309041105487       -2.76391536384801       -0.21406380226007
C           -2.42217145332554       -2.23692834561122       -1.48733798025927
C           -1.93611840780603       -0.95061989595568       -1.59830643600683
C           -1.60836889464730       -0.19905148390669       -0.46114882945102
C           -1.77082630987063       -0.73003637765706        0.80126406041033
F            4.89778373114826        3.40089994586844       -4.32128265488989
H           -7.90949207853506       -4.37719143839885        2.40280486050434
H           -7.42869174560517       -6.01660520113258        2.88219087393687
H           -6.83758367297144       -4.61675125950636        3.78617187325376
H           -5.57295626038004       -3.87261937123338        1.73832600761909
H           -7.85282609063307       -4.43209257971905        0.08748994654654
H           -6.30761572875235       -3.70530365555974       -0.43072919119945
H           -6.91287206394035       -5.18974934922687       -1.21979783774999
H           -4.34948525419322       -8.36084728134564        4.26045003957333
H           -1.94123576327280       -7.70228784090434        4.13567496692817
H           -1.35558392614551       -5.64535890185160        2.83853229990144
H           -4.05065938498865       -5.76657512203719       -0.21165233741078
H           -3.70980677530730       -4.74567157931817       -1.61726440581785
H           -1.62999599238325       -6.30386293081271        0.00315045347881
H           -2.21043059632794       -6.71648302152467       -1.61291584883994
H           -1.26031545621654       -5.24760113562884       -1.36154485164139
H           -2.24416066086197       -3.43684921337454        4.06895938366961
H           -1.35804737524392       -1.98822482970320        3.57094294263124
H           -3.68368766559938       -0.90204152287177        6.24741475801300
H           -3.05185199675516       -2.54614672737990        6.15782354637209
H           -1.98850899063953       -1.17454902107455        5.83659610362107
H           -5.09981340235386       -2.13142939671015        3.03874360375854
H           -4.77524151884233       -3.25017495734586        4.36437700951533
H           -5.47888377899930       -1.66394856365456        4.69501786965854
H           -4.07171106791537        0.44407935964521        4.21087524611061
H           -3.68639181042203       -0.20915522745624        2.60243486828518
H            0.13774548371949        1.29624878807879        3.29336218419253
H           -0.91713052999044        3.99756920505809        3.64771541274164
H            0.51899985519727        4.84821196517465        0.96196849969011
H            3.34087157774405        4.21887164270102        0.36412060729756
H            4.54815153883122        5.78598650326747       -0.54161038458954
H            3.15243131129983        7.63276190744317       -2.52957451828989
H            5.41692480734817        6.78279758979769       -3.29326064391561
H            5.44413075112001        8.50335368229810       -2.90896178689033
H            6.10069162684271        7.33061208760792       -1.76634685324946
H            4.58579202237370        8.19993536337290        0.09855390354968
H            4.04221268358503        9.42213713449687       -1.05550253027391
H            2.86220819596575        8.40398296225780       -0.22955481255766
H            3.47905010508121        1.34506581539875       -2.14564746473990
H            2.66822601815764        2.27048040820548       -3.41768679320316
H            4.04612404797627        1.13640042100029       -5.14864671791232
H            3.10854433813012       -0.04204397101427       -4.19219827641463
H           -0.30599599972179       -1.52305906139792       -5.03036472047451
H            0.48597312391885       -1.24516688283201       -3.47783832987459
H            1.42013999388371       -1.11499691991028       -4.98255527249826
H            1.18778197541231       -4.66350885782913       -5.74382684859919
H            0.57292207872730       -3.16789058318284       -6.43506581513091
H            2.28714819641897       -3.28120840044671       -5.99308248502892
H            2.63575215088602       -5.28993805472025       -2.48291336460784
H            1.19409849485459       -5.55323155831111       -3.47519977254446
H            2.76022987928969       -5.19770844449044       -4.23178164771754
H            0.98697465637561       -2.17316165479471       -1.72366521844249
H            0.07864165181035       -3.65881723439381       -1.99224388277757
H            1.63827931396334       -3.69866710378324       -1.14704905364085
H            7.16293121106028        0.31098303379456       -3.46058849495604
H            6.45551925602341        1.30748945916297       -4.76114323149797
H            6.89540502979619        2.74828236017722       -2.82857533661354
H            6.00793603966896        1.66940341365491       -1.74854155483162
H            3.54729464538874        5.81681025129820       -4.19234090498633
H            2.77052562494493        4.24988053125627       -3.96320955046569
H            2.09954750908289        5.67427913189252       -3.16664536882929
H            1.84151911970160        2.10495448975802        0.68163296857753
H            0.15584915752074        2.40484569591844        1.18009562649774
H            1.40630305822835        3.09532623593558       -1.51360952461360
H            0.79144247783778        0.67495852014708       -1.10170091999122
H           -0.15531086851399        1.42306652208686       -2.40771733538701
H           -3.09928433655426        1.75594301301783       -0.98894939812648
H           -2.38268475734723        2.49767862070350        0.45999460756468
H           -2.39309863994530        4.19809616637118       -1.25266637676094
H           -1.76290960265851        3.07991534721687       -2.48067204418176
H            2.54167738775444        4.20265125761289        4.89540360057540
H            0.88079460116722        4.53533708135995        5.45050622101725
H            1.70704280003541        2.45559952501017        6.53441201982647
H            2.07905261274377        1.76408854782203        4.94694366570220
H           -0.69645552646637        2.59311036249370        5.93705381105061
H           -0.13566519503199        0.92828014506499        5.69970342497474
H           -2.64938820157017       -2.80656548625074       -2.37526348963135
H           -1.80087725975200       -0.51713756390369       -2.57870852785735
H           -1.47278870666471       -0.14311987644200        1.65120397614080
