151
 energy: -221.317008725482 gnorm: 0.005610170931 xtb: 6.7.1 (edcfbbe)
C           -8.08245138366029       -4.42520017603270        5.92838126208903
N           -6.06511408672672       -6.32306724229383        6.41864506867031
O           -7.76869385147067       -6.05871454976286        4.09645558350727
C           -7.19356977702262       -4.96276884492948        4.80724810727476
N           -4.62376094003375       -4.56854612278273        2.43293789664040
O           -2.99273777926732        0.52480509761408        4.50689937552531
C           -9.09713597418045       -5.87882612686834        3.65577634030787
N           -1.31801612161778        3.12335316141999        2.74377300595467
O            2.92224956545706        1.07469578712379       -8.40681776916598
C           -5.90259517875316       -5.51036164034806        5.38248867962866
N           -0.11905343396511        3.80750533845452        2.97881725394226
O            4.03688112722203        2.16422709487540       -3.07479153416753
C           -5.01229451686336       -6.87817704093141        6.98740332813247
N            2.07882123452726        2.86345505715875        0.21591644129970
O            1.95975777516669        5.04755546091961       -0.29750967295018
C           -3.71387868095565       -6.65217459228554        6.55698392608596
N            3.91049244593240        4.29511126462460       -2.35468346206145
O           -0.68257303061250        1.75899033356587       -1.26173764360539
C           -3.53411827507944       -5.80423970148777        5.48179533419209
N            4.18186141082917        2.72600566473694       -7.48102468697851
O            2.07889640359184        4.01442683903436        2.58927939502093
C           -4.63748815006223       -5.21207775741521        4.86105063936433
N            7.28100822965066       -2.09482667208789       -8.35186468661149
O           -3.91676524851040        1.99971047494119        3.08898794901404
C           -4.34888682854036       -4.28870629067162        3.75432075342782
N           -2.01661372831564       -0.26375985507480        0.12766493162738
C           -5.32072640966345       -5.72787734861055        1.93019681186877
C           -6.60997195489923       -5.36255243369258        1.19924987920945
C           -3.60976245035478       -3.12955578266525        3.84920460299825
C           -3.10048120074282       -2.44980300070276        5.07865116435037
C           -4.02844656974172       -1.34997158890686        5.64306913018203
C           -3.40744311379832       -0.80026031111447        6.93037965699569
C           -5.40510718470524       -1.93512100570715        5.94953328866577
C           -4.21630695691015       -0.20760792540912        4.63506444842325
C           -2.98201892601450        1.60507161210543        3.74952812859618
C           -1.66371975129793        2.33481985943289        3.92322309878152
C            0.98463540966933        3.57231471506948        2.25398460538796
C            0.81229109573307        2.83684087350182        0.91523642344316
C            2.57415603663077        3.98673340530572       -0.31337792490166
C            3.94546560263924        3.81204177980823       -0.97634720717663
C            5.07024094609498        4.46953344425256       -0.15326012150821
C            6.40517045841832        4.32513324599755       -0.88381106792877
C            5.14606981305599        3.79765899575971        1.21648941826338
C            4.02119163803478        3.37593076636632       -3.31718411975766
C            4.16449158012402        3.75704401670180       -4.79961261817274
C            2.86896077977031        3.39190079969151       -5.53418112159062
C            3.04084029890982        3.50317911999509       -7.05242173824614
C            4.01701598830299        1.51039055760326       -8.04384363767897
C            5.23559894220988        0.76590779845334       -8.22222592027188
C            6.24136019916148        0.11311931361351       -8.33585029793400
C            7.49279792886399       -0.64023748589594       -8.41413554947755
C            6.35521113121389       -2.49939520064419       -7.30903715879372
C            6.90061794656674       -2.72839071511267       -9.59945509185373
C            8.21024096321275       -0.21617293816019       -9.70452203607811
C            8.38111437197019       -0.21478140253293       -7.22979881816216
C            5.42197295379474        3.17550565973871       -6.89197910682969
C            5.36399752233832        2.99263535745395       -5.37622992455119
C            3.69744716083794        5.71559535690886       -2.55210876727778
C            0.30325347177538        1.40048836064946        0.97311064895096
C            0.04888267775015        0.85418689557447       -0.44675074929918
C           -0.67245429093950       -0.49831344047530       -0.35900637829144
C           -2.75455572073311        0.56154697649954       -0.80518415562026
C           -2.03799155557618        1.90945580187460       -0.87321630011857
C           -0.09825656523069        4.70250825864928        4.12843273261410
C           -0.47243322244346        3.94895979440247        5.40250711744319
C           -1.79195936224802        3.21280195071586        5.18431206454939
C           -3.41077656630176       -2.67060929114292        2.51719241081562
C           -4.05397653000615       -3.59625824244184        1.65804307283221
C           -4.00166140537860       -3.43742227922787        0.27687791241188
C           -3.33689122127502       -2.34156647802929       -0.22992696089065
C           -2.69944102953657       -1.41886985725026        0.61217907881896
C           -2.71549722064146       -1.59078798391114        1.97944238536237
F            4.42680955060047        5.11276418054588       -5.00517917548170
H           -7.52327571659587       -3.69870111061426        6.50877388371887
H           -8.96656859950503       -3.94097511391784        5.52449435842942
H           -8.37259124581954       -5.24587826949319        6.57733191949332
H           -6.97113764893769       -4.15104594000990        4.09273653540028
H           -9.80918220792754       -5.94063538249397        4.48284999599278
H           -9.22358582402495       -4.92168138959008        3.13873626658277
H           -9.28511757233850       -6.69380566156560        2.95928353195126
H           -5.22758978321516       -7.52688538342030        7.82542480577916
H           -2.87734975183216       -7.12307293917740        7.04662489055236
H           -2.54583976393491       -5.59517056329957        5.09839660670175
H           -4.65496167819138       -6.27483709247831        1.25296278394014
H           -5.56143692328767       -6.37084244658651        2.78000336502629
H           -6.41069768311710       -4.79159975666460        0.29765093279962
H           -7.13976438038563       -6.27110074555397        0.93129319230037
H           -7.24880638172120       -4.76670305316004        1.84187586375605
H           -2.95077488122822       -3.18981736947963        5.86669732176791
H           -2.13581835953331       -1.99509038621360        4.84619987490709
H           -2.40159622234511       -0.43585546144248        6.74202878536159
H           -4.00644560771781        0.01726166593497        7.32172256894892
H           -3.35827956981083       -1.58311815975278        7.68274972326771
H           -5.89789281197465       -2.24569375082123        5.03236624423081
H           -5.29969373401778       -2.80242390583297        6.59679352075317
H           -6.03202388004990       -1.20080553331664        6.44881746205161
H           -4.99234995141580        0.48334717552151        4.98110329487710
H           -4.50929338084250       -0.58618100613355        3.65298892877641
H           -0.86981346499616        1.59644491706194        4.07429374658961
H           -2.07145278440992        3.77921375652780        2.53427912209086
H            0.11375679562828        3.44967360853086        0.33067223942781
H            2.65870974733080        2.03982304048621        0.27070252055970
H            4.15928665497427        2.74100005619960       -1.05245360177693
H            4.83622336516820        5.52849735894843       -0.01262612029403
H            7.21842965040249        4.60851689725588       -0.22346187870502
H            6.55316923419719        3.29285680018786       -1.19214619357047
H            6.44717567143489        4.95496113654081       -1.76742722375237
H            5.39746817478864        2.74453487163256        1.10711113582096
H            5.91566229583518        4.27264706425189        1.81941477368359
H            4.20053350333954        3.88394674053505        1.74726117279957
H            2.61586513158279        2.36616291265107       -5.26120190863711
H            2.06295830361019        4.04813243519018       -5.20429382594433
H            3.20704824463305        4.54753500808639       -7.33154189553928
H            2.15313392120264        3.12397775381305       -7.56091170521987
H            6.45456243447333       -3.57435639675064       -7.16257555721578
H            6.58751127764850       -2.00506079268209       -6.37033326145973
H            5.30607328653338       -2.27719966402329       -7.56299248593114
H            6.82095989885250       -3.79851882216095       -9.41515091541294
H            5.93203851398545       -2.37201167914155       -9.98490803709894
H            7.66537243202923       -2.57598544191606      -10.35512490046305
H            8.49085551269521        0.83070310983514       -9.62622573188501
H            9.10944167083991       -0.81218884946263       -9.83143636466511
H            7.56893453227810       -0.32959759799617      -10.57413733873931
H            8.50966705828740        0.86480412337579       -7.23278275190435
H            7.94866397953405       -0.50114093600575       -6.27627900705233
H            9.35204546153595       -0.69190318528919       -7.32865836080412
H            6.25359319142206        2.61090461413349       -7.31004056907508
H            5.54670690332193        4.23591866031956       -7.12935532086685
H            6.27817549481241        3.36777948556606       -4.91546838135563
H            5.24637358626644        1.93883141823145       -5.12220426847779
H            4.64084937446119        6.24076291171410       -2.69947629166556
H            3.05147622586238        5.89490683888283       -3.40722580857811
H            3.19317471407702        6.10095057113617       -1.67002043815870
H            1.03758877677369        0.76437717253822        1.46593031248571
H           -0.63278698998801        1.36259704421675        1.52540890705531
H            0.99463969969831        0.73642210860876       -0.98622528576139
H           -0.15100436665936       -1.15423574413089        0.33889399562684
H           -0.67211868981369       -0.97204977612685       -1.35810911719063
H           -2.80511755295565        0.12232008532243       -1.81787467541041
H           -3.76760385357723        0.70517436154977       -0.42479083978474
H           -2.10618287932091        2.39472197313668        0.10732271941697
H           -2.48285173263935        2.55317788238975       -1.63327476652516
H            0.90348610720333        5.12607985088344        4.19187510892147
H           -0.81853627378520        5.50620713371421        3.93899026969989
H           -0.56245598666497        4.65532840633471        6.22685276367485
H            0.31314747146418        3.23145204422441        5.64316142418308
H           -2.60395493130621        3.92859903251437        5.03320205036952
H           -2.03404958441184        2.58964149068425        6.04418488296918
H           -4.45186637354885       -4.14953187291816       -0.39669679083193
H           -3.29270210996028       -2.19657975617459       -1.29966320865653
H           -2.18836363033266       -0.88682172942736        2.60297307645411
