151
 energy: -221.319338450255 gnorm: 0.009122985406 xtb: 6.7.1 (edcfbbe)
C           -9.64663997373344       -3.07043607144668        5.80754507611473
N           -8.18845457211644       -5.17738067167443        6.77247015123697
O           -8.82619057928066       -4.27746971824650        3.82961145596336
C           -8.44607541310756       -3.55771481655820        4.99917196063107
N           -5.55544110106371       -4.31412663174466        3.24458110289652
O           -3.03345188897987        0.58298816285810        5.15401579527544
C           -9.49881262244015       -3.50674750333518        2.85667907097818
N           -0.69435076760342        2.53828048079971        3.29002631298652
O            7.16837142722566       -2.05321522978991       -6.84652808659107
C           -7.57121488020214       -4.48049947084469        5.82893945414967
N            0.65306311483173        2.90101408653614        3.39611739562220
O            4.89930509276745        1.45601799926008       -2.55138574473804
C           -7.48790450936445       -5.98094669310351        7.55227531174885
N            1.94867925773519        2.27697137986407        0.05507335726941
O            0.87977646163246        3.87452579052619       -1.12660829655157
C           -6.11232849948920       -6.12203032094336        7.45627093962769
N            3.00450936398639        2.57583728005820       -3.03029076864321
O           -0.96126029187715        1.23878714295622       -0.81288039321618
C           -5.45935251781550       -5.40692516176856        6.46975765531329
N            5.69538097522605       -0.34593533319941       -6.63168421655619
O            2.69903753960075        2.99589791024517        2.46934756209433
C           -6.18919285840355       -4.57584905181085        5.61905627146371
N            9.52976416147532        2.28950051395496       -9.69781511294783
O           -3.36784554260617        2.19904535596107        3.63753932895572
C           -5.46756141139525       -3.87523646923676        4.54710269016790
N           -2.19140827983591       -0.63320866664601        0.87318214237036
C           -6.22277292380716       -5.51243811929819        2.80029100179202
C           -5.34255520831516       -6.74883960782307        2.97973253037132
C           -4.58285666342312       -2.82440991145613        4.64249498679814
C           -4.11168180587661       -2.14109460108427        5.88899700125689
C           -4.74740444865097       -0.77609911694665        6.23693613249768
C           -4.18830284464320       -0.31542777467322        7.58614974851116
C           -6.26804603073941       -0.90163374826239        6.32837192195589
C           -4.43866861765802        0.28434127600637        5.17455065825190
C           -2.63374516086984        1.54620852930226        4.34756110604026
C           -1.13505426208140        1.77895222078395        4.45682514901416
C            1.50976766703522        2.70137205108559        2.38179686485536
C            0.92859550592831        2.15755617103826        1.07459642600588
C            1.87329100444214        3.18609927697614       -0.92264545636634
C            3.13992523427167        3.31320193155252       -1.77550115746149
C            3.45257534391763        4.80625878940715       -1.99732113070352
C            4.66747062554193        4.98349662826763       -2.90146684687236
C            3.69846777830862        5.45867613878790       -0.63815783475242
C            3.96437282921531        1.68989082852368       -3.32169017682405
C            4.02128955096319        0.97593536331809       -4.68598747045342
C            4.51551931849438       -0.46052076686831       -4.49259690042640
C            4.77053464747027       -1.12638133502076       -5.84190712481355
C            6.83837440586408       -0.88782476313713       -7.07952538914496
C            7.68072164722564       -0.06887196984558       -7.91180372179718
C            8.51894752987834        0.37731888266921       -8.65481813145890
C            9.54211395830191        0.82611376239513       -9.59516980189889
C            8.23396939534794        2.85412445502188      -10.01725004701581
C           10.54625625428113        2.84379944296973      -10.56889716335626
C           10.88689278597261        0.34922267517039       -9.01661950525836
C            9.26086322480988        0.08772576069823      -10.92359901271925
C            5.26020176737492        1.00320421542128       -6.89475650688452
C            4.99476660889647        1.75178091393573       -5.58536067213267
C            1.84813776128495        2.87325482318598       -3.85014608623768
C            0.41183638020455        0.72027923855720        1.17655062999624
C           -0.19181511219778        0.24326883166218       -0.15791927812251
C           -1.04576430317512       -1.01450057937006        0.07038039414014
C           -3.00511623806961        0.33371149543987        0.15415121712804
C           -2.15427289655542        1.56856476301514       -0.12137692904299
C            1.04722757787024        3.62368034319194        4.59767854711358
C            0.66323334106337        2.81825849600415        5.83689684922022
C           -0.83075116660255        2.50604989167515        5.78288828776816
C           -4.09959461658271       -2.59554056350405        3.31882445134881
C           -4.71949770456300       -3.55495594533323        2.47851899127049
C           -4.44332853289163       -3.61149884485161        1.11609407096959
C           -3.58723671206801       -2.67195996100299        0.58730093395954
C           -2.98657008538975       -1.69954366730841        1.40032587929213
C           -3.20994276745931       -1.67990390920694        2.76019172413444
F            2.78375487038383        0.90529444817590       -5.32816962034905
H          -10.22386093392302       -2.34809169588836        5.23660799267929
H          -10.27437165948972       -3.91761280002724        6.06389639748940
H           -9.29790036590913       -2.59975146112036        6.72152949460223
H           -7.83792450241843       -2.69475315958146        4.67908774463584
H          -10.56536956449345       -3.41154421613376        3.09060697097764
H           -9.05197347285723       -2.50513748201849        2.77637954792932
H           -9.37967320163379       -4.03591469698866        1.90791024764620
H           -8.06179056488581       -6.52646070945424        8.28906187772831
H           -5.57506933953751       -6.77425517952758        8.12509556599341
H           -4.38996281306806       -5.48473415661722        6.33843630889330
H           -7.15725856032474       -5.62493016278750        3.35522705058391
H           -6.47276021779594       -5.38219443460691        1.74447448817896
H           -4.38256876030499       -6.60777063173208        2.48767545402261
H           -5.16941786183186       -6.94085577559580        4.03501917085688
H           -5.83501505428624       -7.61476237117285        2.54750879989950
H           -4.30113797595902       -2.80544008528367        6.73394547952644
H           -3.03334136178249       -1.99401902453517        5.80453386010542
H           -4.47585284079503       -1.01250821611541        8.36888994088396
H           -3.10347688937423       -0.26169067608851        7.54911103040640
H           -4.57471424540235        0.66811264617180        7.84185384600635
H           -6.70323243048173        0.00774321234634        6.73843548063175
H           -6.68992829473401       -1.06583789182482        5.33944728090905
H           -6.54150600408726       -1.73940631100639        6.96817822666559
H           -4.98023597628523        1.21162246567735        5.38917574091553
H           -4.73615964724909       -0.05913899493699        4.17952881684024
H           -0.62048256754061        0.81149447102093        4.45018281004768
H           -1.28814441178799        3.36305084643761        3.18393292018495
H            0.11490905874045        2.82221439254496        0.76493179486915
H            2.83269800678079        1.83398431673204        0.26348372393991
H            3.98229264978256        2.85428554472537       -1.24965686750699
H            2.57854784852739        5.27840122916599       -2.45670664969849
H            5.52728627570792        4.46769706244793       -2.47920424355740
H            4.48121135238850        4.58185413842255       -3.89452999775595
H            4.90558976777525        6.03875833245861       -2.99647975965801
H            2.82105788459283        5.36542737089734       -0.00078505681912
H            4.53777920301444        4.98488809159598       -0.13350027229351
H            3.91848921958653        6.51512081591385       -0.76493476075550
H            5.42589960521818       -0.42520144174053       -3.89538137486015
H            3.76240416071323       -1.02698622695405       -3.94501744450752
H            3.82432051095852       -1.21487449166428       -6.38862750750047
H            5.19985540106187       -2.12057744818945       -5.70331664987437
H            8.26633694505514        3.92204640008526       -9.80152224190381
H            7.95437975693472        2.72607708423383      -11.07392447765364
H            7.47090859896521        2.39360315145957       -9.39351804510308
H           10.55172463365746        3.92379228895152      -10.43269840741417
H           11.52661162310353        2.46270190203200      -10.29778417112716
H           10.36276393240147        2.63672253636379      -11.63376248186970
H           10.77420994538851       -0.65756813573458       -8.62194122473686
H           11.65412495778991        0.33122075881909       -9.78536279390593
H           11.19381019098348        1.00839179985692       -8.21021718025730
H           10.03868286799306        0.31402179519153      -11.64783696599857
H            9.24842431496707       -0.98404299726107      -10.74579496312530
H            8.29540718872007        0.38071521379025      -11.32924977877207
H            6.02769583767596        1.52258991937056       -7.46926079805456
H            4.33310715449955        0.96547312136832       -7.47858952494248
H            4.57356695376563        2.73066901619399       -5.81498898567761
H            5.91937957999129        1.88876207091069       -5.02680458573586
H            2.14178846001392        3.24495671861605       -4.83124278491996
H            1.22290670984025        1.98965610046545       -3.97557691768382
H            1.25348155636524        3.62975890342796       -3.34439364081339
H            1.22855274616907        0.05187722893846        1.44681174777819
H           -0.36159237568375        0.67497816675923        1.93999942514420
H            0.60968499580881        0.02492484728185       -0.87228303418087
H           -0.47049811713831       -1.76694111088233        0.60990173836164
H           -1.33588684225845       -1.42242896573598       -0.91332618417488
H           -3.38325707547311       -0.07921189830180       -0.79867630452682
H           -3.85555873802505        0.61289517122498        0.77959027236065
H           -1.93182639807396        2.06032664086953        0.83270128317419
H           -2.67862637134355        2.26823831607307       -0.77413869207282
H            2.11997080491557        3.79724085960568        4.53549894972991
H            0.52503915747252        4.58723298859278        4.60475942756258
H            0.89878289913996        3.39413318832081        6.73125559331990
H            1.23649655677982        1.89029729420488        5.85874663197543
H           -1.40510703911533        3.43724721051976        5.81957614093956
H           -1.13199695199392        1.87933881854438        6.62315774995566
H           -4.89265014796832       -4.36008611559171        0.48104816564175
H           -3.37746811426043       -2.67822026370631       -0.47262393591341
H           -2.69511222156092       -0.94693597173687        3.35747356020654
