151
 energy: -221.321478724171 gnorm: 0.006866007864 xtb: 6.7.1 (edcfbbe)
C           -9.33525235798141       -2.99685621636973        4.06470504249053
N           -8.39332118117061       -5.06534814922162        5.73897750033008
O           -8.51926696380634       -4.95972719017602        2.81794667942141
C           -8.14784085033899       -3.87573747673124        3.66809365017612
N           -4.95559163543050       -4.42175641715569        2.95960039161545
O           -3.13676667410088        0.63569011674489        4.95058170430234
C           -9.03585301232941       -4.58009055801887        1.55939658433180
N           -0.58292905343083        2.77337585163557        3.71069577439028
O            8.88060213750439        0.06595149655190       -6.13908198225527
C           -7.53112537843549       -4.50830544231795        4.90127032793715
N            0.72156928379762        3.14943352113743        4.05193919149901
O            5.69805177133131        2.89377186276846       -1.59855822786841
C           -7.95026856793422       -5.64445715938574        6.84000544528888
N            2.34725439965018        2.76529557928293        0.82638966023142
O            0.99703097702787        4.14511095829059       -0.33272114308585
C           -6.60720598885590       -5.69171950275023        7.18023203473214
N            3.49425525934121        2.75997899065199       -2.01826837400883
O            0.12379691201435        1.16659314465558       -0.39438991183319
C           -5.69862971681699       -5.11342842949330        6.31211799747368
N            6.73298381822624        0.37691940302263       -5.47907022333999
O            2.88082550681216        3.33223290560047        3.43341480783832
C           -6.14735730097941       -4.51219802155988        5.13623539402186
N            7.31995248717805       -0.39660707861312      -10.94959820927331
O           -3.31110516152010        2.50187226365871        3.72307737221607
C           -5.16971607943454       -3.91003465873531        4.22210338003308
N           -1.31308455946330       -0.69726142460011        1.13037111827443
C           -5.44742364337774       -5.68551968746801        2.46891098817137
C           -4.55942640370223       -6.83913973167384        2.92951523276812
C           -4.34845235110122       -2.82613812162156        4.44413416949660
C           -4.21758558156945       -2.01776329551158        5.69605158475137
C           -5.02273433704448       -0.69935596732777        5.75277398127783
C           -4.88369929470497       -0.10771341211380        7.15859773265086
C           -6.49573972057625       -0.97127294801363        5.44955784195652
C           -4.52030259949745        0.32364175255427        4.72664392575057
C           -2.65944933432220        1.72876352698329        4.38969079727187
C           -1.19538555500287        1.93909549276038        4.73713816928002
C            1.72595636146009        3.00940435801897        3.17126196465404
C            1.33041482860866        2.44888539546428        1.80456444826692
C            2.09033792979081        3.61705961734832       -0.17564868534854
C            3.27278253010821        3.89071665521416       -1.11768434125617
C            3.03668194007583        5.21157992789843       -1.87924439474954
C            4.02031989049756        5.38532104627787       -3.03321236593833
C            3.17045217447045        6.37351161079616       -0.89685228876408
C            4.76482663149591        2.38873545299760       -2.22355706817793
C            5.10811580483892        1.30724708168414       -3.27570153567814
C            6.56449809128142        0.87669006713829       -3.09032953387140
C            6.97120904380374       -0.13948580095931       -4.15047627350762
C            7.71450072243350        0.38136389080140       -6.39450034368574
C            7.34969097376156        0.72696385978143       -7.74604805637144
C            7.29983881892382        0.82627435454210       -8.94593969251438
C            7.16414747102222        0.95784159621863      -10.39605517573893
C            8.58896281572082       -1.02100937308631      -10.62948721207963
C            7.03736449803557       -0.52897361805659      -12.36447450266178
C            5.75755430181442        1.49995554848857      -10.68994050963969
C            8.22236887444024        1.97008395055793      -10.88273602627508
C            5.36575561429425        0.76147501993449       -5.73178434729503
C            4.89789952380582        1.80497310641144       -4.70948150995776
C            2.32384744771669        2.29126916111378       -2.73031830194106
C            1.04560194555086        0.94417103487150        1.89095238599575
C            0.80044827875661        0.30668514461826        0.50967635036804
C            0.02741082976218       -1.01359002833429        0.67713015196309
C           -1.99545780399399        0.10377395600481        0.12647423083493
C           -1.22684090054903        1.40813419295872       -0.03984830693908
C            0.91869489595749        3.77857641106064        5.35034145960269
C            0.34271214172955        2.89210855924156        6.45133881225169
C           -1.11810448426561        2.57994428281084        6.13650063492932
C           -3.58934275408396       -2.65256970887725        3.24892518314728
C           -3.98118803929984       -3.68064945166918        2.35563136345550
C           -3.40680021737471       -3.79732553999428        1.09352571731413
C           -2.49394275954468       -2.84226649103875        0.70708095247941
C           -2.12848433679373       -1.79224963808286        1.56385611477703
C           -2.63876277733419       -1.71770001593259        2.84113044266037
F            4.30141132163172        0.17612354621209       -3.05584040442346
H          -10.11696019241021       -3.62620147015746        4.48021214699631
H           -9.01706941469678       -2.28167172327246        4.81723432916233
H           -9.71791465487451       -2.45285322026975        3.20525101143252
H           -7.39063246399180       -3.26519511379216        3.14551046121320
H          -10.04096115217137       -4.15770432220942        1.64741444363670
H           -8.37494524181593       -3.85501996060657        1.06831498588192
H           -9.08183481297927       -5.49402997349156        0.96903264466810
H           -8.71163049263909       -6.08358584488074        7.47042179307213
H           -6.28445250376945       -6.17182554442424        8.08917597196684
H           -4.63998621676060       -5.13800077885344        6.52532443053325
H           -6.46911200420839       -5.83756394835693        2.82236352396814
H           -5.46672964830401       -5.63760227809737        1.37783313653428
H           -4.93152637448926       -7.77651163121160        2.52547046166960
H           -3.53667699273450       -6.68783404171890        2.59011652576974
H           -4.56091761254035       -6.90314376613468        4.01490596873662
H           -4.54750670760263       -2.62826393147994        6.53910600597665
H           -3.16274229571353       -1.77669136448813        5.83920394844470
H           -5.41378839403461        0.83959906513086        7.22723135578480
H           -5.30019513131057       -0.78822965625950        7.89627676894510
H           -3.83690428051202        0.06314319751697        7.39596060415827
H           -6.88116400120171       -1.72492778709139        6.13095356120375
H           -7.08423081898752       -0.06452952188780        5.56182102236575
H           -6.61166699165773       -1.33402401684879        4.43220476813643
H           -5.09544756278966        1.25189175851842        4.80046395318063
H           -4.62266081720654       -0.06215108185593        3.70888878400734
H           -0.68020062388422        0.97273622399891        4.75168700740989
H           -1.17042150724031        3.59548625663290        3.55653758944989
H            0.43562098059614        2.97881407541445        1.46808940183282
H            3.28301825480145        2.41975439943333        0.99051179678872
H            4.18582979178235        3.98773980764678       -0.51931988888921
H            2.01116245175764        5.19982286301278       -2.26218666008836
H            5.04186671440735        5.27439270620630       -2.67540315673980
H            3.84952554749559        4.65400790247820       -3.81847643593954
H            3.90860651683301        6.37722798331348       -3.46208984950510
H            2.47356859278649        6.25637142327630       -0.06898593819175
H            4.18289794513793        6.41649486916968       -0.49708051996518
H            2.95368305891956        7.31374707576760       -1.39839557614295
H            7.18883195358618        1.76741602522135       -3.14995707306251
H            6.68911556324269        0.44453811281002       -2.09726172295698
H            6.38917814840375       -1.05886296001126       -4.01985938255552
H            8.03360239728699       -0.37346846809199       -4.06641706284450
H            9.42147914174716       -0.64749661977538      -11.24471253125745
H            8.82935820214750       -0.86072076671351       -9.57939454722702
H            8.49623605773160       -2.09426587856059      -10.80072181485300
H            7.75007269382095        0.01333804107622      -13.00557162743651
H            7.09962164445484       -1.58808652647593      -12.61469733617341
H            6.02771635056777       -0.18921566850191      -12.58181681188296
H            5.67890841996758        1.82477204802342      -11.72248605367297
H            5.01795074299149        0.73138457910882      -10.49182881220636
H            5.55981857300603        2.35335001130552      -10.04751830269254
H            9.21850207288256        1.67183425819880      -10.56282924366921
H            8.20150490737390        2.03681552629409      -11.96789525597346
H            8.00803035689722        2.95115603945521      -10.46826443227855
H            5.29217646705882        1.17031317331172       -6.74144144605246
H            4.72636666153345       -0.12764109308422       -5.65592972056254
H            3.84776143170378        2.01640391206977       -4.89083785100140
H            5.46886382490313        2.72239586337038       -4.82371952264730
H            2.03570589334035        3.00782486606741       -3.50104314555182
H            2.49373461688135        1.31980916727252       -3.17594559023593
H            1.49750000780865        2.19401756933374       -2.02543038066809
H            1.88524025186919        0.43349447948750        2.36316248705829
H            0.15185969388782        0.80382618875809        2.49654524946632
H            1.75710558211956        0.11165272115011        0.01265753262240
H            0.51700463969450       -1.63812436587347        1.42447013085497
H            0.03031612917957       -1.54670061042533       -0.28961611742924
H           -2.05149469344731       -0.41817769370008       -0.84523570070229
H           -3.00790203514072        0.31739231064707        0.47134535026498
H           -1.29266930095218        1.97666682489352        0.89440248372329
H           -1.63462940622272        2.00952471005553       -0.85360386833281
H            1.99047164647863        3.93182063738244        5.47311537253114
H            0.41539670430326        4.75251192762240        5.34756175780997
H            0.42221727373691        3.40714350279835        7.40787102364186
H            0.91339534321480        1.96421248927785        6.50654706612112
H           -1.70612180524160        3.50078101288345        6.13732798277908
H           -1.53809006472809        1.89868658384932        6.87505540888807
H           -3.67672929055202       -4.59753545757126        0.42173641461838
H           -2.05470189087932       -2.89299770906610       -0.27876612126543
H           -2.31389672886703       -0.92680253403917        3.49471309313834
