151
 energy: -221.318502025915 gnorm: 0.005348685923 xtb: 6.7.1 (edcfbbe)
C           -7.32842827618605       -3.71609519806721        4.06225766103489
N           -6.11103653161068       -6.26436757192847        4.08967427786376
O           -7.15457444402838       -4.68758638949336        1.80988336651409
C           -6.41974663318922       -4.18370084428079        2.91978253517976
N           -3.67133297841647       -4.16007952975254        0.97904968673262
O           -1.55586172126961       -0.07304289034562        4.50250149685468
C           -8.07176887821537       -3.76836113475974        1.25415991866500
N           -0.07353963155980        3.04471587482498        3.65169052549306
O            1.02528070212751       -1.52650298367040       -3.96660279203776
C           -5.51731065461719       -5.30796732563497        3.39213416219969
N            1.13068916200468        3.72508263440381        3.86448389095604
O            3.63499453486921        2.87731794312043       -2.49601601814613
C           -5.39108608879380       -7.26801427453278        4.55804438417467
N            2.41276494984583        4.28595100053675        0.46569246058426
O            1.11861406457694        5.96244120798734       -0.31234327408922
C           -4.02119436664977       -7.36931662057656        4.37395336927702
N            2.37709625115316        4.72716069692685       -2.75211528549304
O            0.02437796333083        2.99959755470026       -0.86509033209280
C           -3.39132518647349       -6.37830223342594        3.64246886502263
N            1.56396062622255        0.18154222713827       -5.36473885134724
O            3.02356311201104        4.62917282605623        3.05992878535957
C           -4.13964072856612       -5.32443263707878        3.12233683518746
N            6.15461706502150       -1.71559584669382       -6.39099177460268
O           -2.53728233779823        1.91481885374939        4.17724303066116
C           -3.47516960159914       -4.27310545754932        2.34109957960144
N           -1.00894864255208        0.60483063519734        0.17106063547778
C           -4.33438103742069       -5.14945302996681        0.15937956506088
C           -5.36290841469440       -4.55948165216494       -0.80397353641575
C           -2.63525432002300       -3.27978211834738        2.79102472628824
C           -2.01798754964057       -3.10421572415099        4.14379781981429
C           -2.71823101219188       -2.14051783895020        5.12673653216623
C           -1.91052066589284       -2.10258153864968        6.42663137926241
C           -4.13381751024616       -2.63832357775454        5.41298037691038
C           -2.83809448520949       -0.72137133922631        4.55504295018578
C           -1.54599861983406        1.23361530020283        4.32582688942102
C           -0.14082781850780        1.80597900049393        4.42433624589460
C            1.95251143962634        4.06824956786639        2.85673706429454
C            1.46589930285644        3.78010086640679        1.43610936771415
C            2.10715044521918        5.24627905693283       -0.41454812020273
C            3.06408718683703        5.33927842245990       -1.61100878848773
C            3.52751821412904        6.77454715916716       -1.89434374290769
C            4.42674051335728        6.80939538848863       -3.12748552220245
C            4.28264672105293        7.29010220083443       -0.67051282529052
C            2.77801974323156        3.50988341493268       -3.12539222908563
C            2.14945425865755        2.80599478620681       -4.34323389594986
C            0.99191500038584        1.94660740311119       -3.82514476699826
C            0.46373654553582        0.99539727549670       -4.89802002103979
C            1.82101177934533       -0.98973853823520       -4.73911249738014
C            3.08703142645517       -1.58849286091992       -5.06581260223999
C            4.15392121979907       -2.11903692268871       -5.23852706255767
C            5.45634631316210       -2.70087668397121       -5.55300157129512
C            7.33798098074327       -2.19288171304147       -7.07493395363108
C            6.43189364065117       -0.46377928797669       -5.71268142031592
C            6.18002361496344       -3.04771692276986       -4.23587739820314
C            5.17836365316861       -3.99275613340643       -6.33750997947276
C            2.58062808680964        0.96387202239574       -6.03076583754368
C            3.21151877120452        1.94944765886199       -5.04401470154489
C            1.24220246331961        5.44746408509957       -3.29280501027589
C            1.22609336440451        2.28943005178948        1.16963057909256
C            0.89375708999316        2.02506627317124       -0.30915316334665
C            0.29809982682627        0.61891503683451       -0.45355622512799
C           -1.89726129852605        1.57595162612616       -0.44734151313485
C           -1.27532386840955        2.95947725315473       -0.29677026263832
C            1.45662778046566        4.04016912389724        5.24805425990657
C            1.49499616576592        2.75290895946175        6.06726044851397
C            0.16206877819530        2.02172979614903        5.92172454616963
C           -2.33190007031222       -2.47981323375589        1.65118270601503
C           -2.97137154442866       -3.07450373008323        0.53515035597640
C           -2.82352065542981       -2.53399713409283       -0.73832103743932
C           -2.14716616913616       -1.34270393466580       -0.86188037194347
C           -1.59205171433061       -0.69838149951457        0.25257588693901
C           -1.62548347827942       -1.29033815563204        1.49423958041117
F            1.66897221616228        3.71647581128026       -5.28831997673492
H           -7.71725617732355       -2.72104838330632        3.86447206019096
H           -8.15007253634342       -4.41697706672735        4.16989452742393
H           -6.77085355719053       -3.69718581508690        4.99190005178164
H           -5.79573246341461       -3.34125214586248        2.57041469086031
H           -7.58151478068818       -2.81162020737983        1.02878436082840
H           -8.42886818265334       -4.22592932098192        0.33056590203626
H           -8.91933515194658       -3.58756275441899        1.92301423104169
H           -5.94409493158160       -8.01453601875071        5.11137019494108
H           -3.46821913871857       -8.19871041254311        4.78430575939207
H           -2.32801173713904       -6.41575541074006        3.45726358179392
H           -3.57872247548839       -5.70993151516346       -0.40388571192448
H           -4.83980209340038       -5.83833162687882        0.83901099274331
H           -6.10941032692144       -5.31271411723068       -1.03606025591267
H           -5.86094974383235       -3.71180496054023       -0.34676027897234
H           -4.90832551138470       -4.23175253499794       -1.73323093272628
H           -1.96550807989247       -4.07910409642769        4.63235306484229
H           -0.99820773779003       -2.74547524344871        3.99058463454375
H           -0.88998262865661       -1.78485720817177        6.23045502298034
H           -2.36018228169714       -1.40961631169510        7.13351546465610
H           -1.88634569662840       -3.08972626639275        6.87991156185660
H           -4.61841411679526       -2.01734952937937        6.16200409716277
H           -4.72565083450609       -2.61273353576883        4.50363823564190
H           -4.10426024638994       -3.66226672150672        5.77733118800382
H           -3.49573525725628       -0.11222307122300        5.18419620715324
H           -3.25784321065938       -0.74304328871773        3.54507978552130
H            0.57656352802182        1.09453515513045        4.00334913750948
H           -0.86997227140680        3.63389150242049        3.90037753080312
H            0.54577859942256        4.35490217134924        1.28180004287864
H            3.26387025449815        3.75675742837201        0.34972535945805
H            3.94345284571407        4.71649585374268       -1.42174752200396
H            2.65084125521837        7.40707960588403       -2.05492841631976
H            5.29434167531521        6.17039198219940       -2.97629014407677
H            3.89994187708348        6.46361232570436       -4.01267022563875
H            4.77172477698466        7.82340268199535       -3.30640456197996
H            4.60353522255134        8.31467641118007       -0.83454235005723
H            3.64706047564506        7.26296432760228        0.21189475880713
H            5.16083815322042        6.67787163783868       -0.47864373567523
H            1.39381135250261        1.34973324974653       -3.00519371775792
H            0.19599138612982        2.57629535682208       -3.42786389220072
H            0.04776401677435        1.54975753283657       -5.74111245176745
H           -0.29880797107303        0.33919663692051       -4.47485509580117
H            7.69235860018549       -1.38865275998794       -7.71859921467913
H            8.15600482618448       -2.46700966922301       -6.39203640493837
H            7.09406229130825       -3.04471875326613       -7.70197218153364
H            6.57944969312699        0.31088108062043       -6.46604235929789
H            5.58537794803660       -0.18296977660455       -5.08954210686217
H            7.33351884743454       -0.50732977441484       -5.08394360125335
H            5.61050770575160       -3.79609584543814       -3.69189449063036
H            7.16739009063242       -3.44794023631063       -4.45290744790259
H            6.28304645366578       -2.16867170442138       -3.60442939804675
H            4.80945529327754       -3.75110744598442       -7.33157286449920
H            6.08010281528274       -4.59552910439511       -6.41440958796882
H            4.41823109821894       -4.57106860209386       -5.81462666312236
H            3.34442626362600        0.30395849801689       -6.44101615093644
H            2.09979521065419        1.51219273806559       -6.84450226225486
H            3.90315367188484        2.60959087218165       -5.56764168217528
H            3.76210196534054        1.41154873497079       -4.27105573893499
H            0.46053110880588        4.75857986315836       -3.60509580341785
H            0.83632580614984        6.07623833864491       -2.50096139764623
H            1.53753081573802        6.06584912228688       -4.14294113933910
H            2.12376004769064        1.72452863010629        1.42082955409851
H            0.39510741768973        1.94047791674255        1.77629345392247
H            1.80421608609829        2.10371469542331       -0.91262499516615
H            0.93534309539812       -0.10537335271246        0.05685814104454
H            0.24579202382030        0.33415104925848       -1.51866930378823
H           -2.06776768091187        1.37031274384197       -1.51842051142978
H           -2.85492538078525        1.54536799647621        0.07820394067551
H           -1.24410747200352        3.22408784403225        0.76563783180672
H           -1.85069743532616        3.71178921009825       -0.83733073436634
H            2.41942514594947        4.55021409731708        5.24839715989597
H            0.68788790742054        4.71633382769199        5.63809153288330
H            1.68037390168025        2.99239797445446        7.11310341118079
H            2.30635052372284        2.12061593127561        5.70510890904601
H           -0.63952830445065        2.61911072327740        6.36280967523035
H            0.19348758873902        1.05710993202302        6.42647205897149
H           -3.22752177188482       -3.01377883714880       -1.61354283959521
H           -2.03911769940432       -0.89656862696571       -1.83980749368546
H           -1.13171281653350       -0.81004811513603        2.32183716706258
