151
 energy: -221.324882022464 gnorm: 0.009589048380 xtb: 6.7.1 (edcfbbe)
C           -8.78308324054647       -4.06213189819871        5.10381702815986
N           -6.86966289914004       -5.96404303169677        5.82113324046895
O           -7.97853638788566       -5.21720886753485        3.09103191903898
C           -7.61002777551902       -4.36128865067853        4.17142119546264
N           -4.75710358429051       -4.08059485118760        2.30219739011849
O           -2.97563858521440        0.73908177409240        4.85643628853653
C           -8.69839475621353       -4.58048562578235        2.05625388408144
N           -0.58661243118796        3.05193566419131        3.58405527336398
O            5.33573642461711       -2.75456035396378       -5.67137712093927
C           -6.49518249748134       -5.07004921072719        4.91756018731971
N            0.75454071098963        3.36731806792182        3.82441893570981
O            4.74637500197877        1.64421723092472       -1.50654254719468
C           -5.94993478512645       -6.61379500569761        6.51152884605062
N            2.32615649896590        3.10255997359768        0.54159627182269
O            1.85107071278471        5.21938377669151       -0.08615726673342
C           -4.58978091037238       -6.39653117605350        6.35590350644257
N            3.37293223813794        3.28785078689656       -2.20190959976873
O           -0.48305594307809        2.35410479537590       -0.77538149764291
C           -4.18906188141604       -5.47040745530671        5.40970877058659
N            4.21254831230888       -0.79404685346251       -5.46229060478777
O            2.86778690257839        3.52458730577543        3.08159588516905
C           -5.14658699472199       -4.79346563821331        4.65512788834416
N            7.89386283959450        0.76128731810041       -9.20577938492699
O           -3.30403265347474        2.70458948702768        3.82774079219428
C           -4.67644207394762       -3.82789820091919        3.65267414064164
N           -1.88453637246418        0.27004907144156        0.46597002435554
C           -5.16760190995661       -5.32576487200902        1.70264934484039
C           -3.97040091665538       -6.24345607601662        1.46127985225927
C           -4.01321908242461       -2.64376222123048        3.88167334392827
C           -3.73317663032348       -2.02523744197637        5.21315444782211
C           -4.65094213973789       -0.84398372006215        5.60914295008746
C           -4.38919636942095       -0.49097254594373        7.07559391322642
C           -6.12061338250565       -1.21773918215263        5.42288308208634
C           -4.36352797396595        0.38768429892134        4.74246483407915
C           -2.57618321565495        1.88595545772840        4.34489937272795
C           -1.07957590412481        2.06603271539244        4.53914443112228
C            1.68340696918949        3.28813411618386        2.86096411513139
C            1.20660893680653        2.95150658201939        1.44318697152193
C            2.56961374083784        4.23098517761562       -0.13486158733608
C            3.78567902380496        4.11035434673398       -1.06302478663261
C            4.36012272298397        5.47978555072319       -1.45359807251163
C            5.38823348420744        5.33684329381510       -2.57193916159171
C            4.99112122815890        6.10010311317000       -0.20753170110349
C            3.89260989831978        2.05795047988405       -2.29233297631093
C            3.48439547187478        1.13438811376684       -3.45723982218326
C            3.79051460594947       -0.32297325373845       -3.10231890158862
C            3.48593066334929       -1.23165001682937       -4.29141536024158
C            5.10702658553575       -1.60233117147260       -6.05440097029033
C            5.79532324682521       -1.07199317938572       -7.20551848267037
C            6.46545920461342       -0.83048133308830       -8.17721377301363
C            7.26858530153004       -0.55824684932046       -9.36784305509951
C            6.94167554868046        1.84866441490422       -9.09741380957580
C            8.93086272037620        1.07437903143219      -10.16563597428271
C            8.33531591770267       -1.66293499497782       -9.41837560475167
C            6.34462015770861       -0.68108839396451      -10.59884705027282
C            3.92439418138357        0.55961089402797       -5.86573254966827
C            4.24158601513915        1.53525951668589       -4.72882911162725
C            2.24645684185201        3.79033498494145       -2.96252836047375
C            0.61526449330551        1.55087461057399        1.28766550924921
C            0.20893536101689        1.27174844018133       -0.17284054786734
C           -0.64445892818725       -0.00154654501275       -0.23608858873810
C           -2.62401043619086        1.31386190263181       -0.22188420753299
C           -1.76788497305004        2.57913873592124       -0.21656398336732
C            1.09617672848273        3.80823664788154        5.16963778009921
C            0.67070486774089        2.74805983069933        6.18118924914005
C           -0.81887499466726        2.46229149658718        6.00583974393352
C           -3.63046860981847       -2.14885841443675        2.60011382692821
C           -4.11354430812542       -3.07467319881248        1.63865732742210
C           -3.89234223120438       -2.88570709478642        0.27834809653949
C           -3.17164857958687       -1.78059826393102       -0.12000080019982
C           -2.65527007631901       -0.87703882692312        0.81951418936671
C           -2.87806162297513       -1.06077321823048        2.16801404601979
F            2.10660371118530        1.21563278584490       -3.69046740750784
H           -9.55179132751766       -3.49493859179436        4.58618698953558
H           -9.19911483563272       -5.00063693925862        5.45944372305598
H           -8.43603744481631       -3.48425892788087        5.95487199906778
H           -7.21287397096020       -3.42355893552370        3.75129390251662
H           -8.16360235865730       -3.69289117981314        1.69774480301305
H           -8.77262715399460       -5.31278779378285        1.25663713130765
H           -9.70226982845964       -4.29145664513372        2.37907447573304
H           -6.32562035910155       -7.33452068883468        7.22629769039541
H           -3.87134696252493       -6.92884618788155        6.95802897511095
H           -3.14237411417082       -5.26969679167845        5.23965659198703
H           -5.88814519832420       -5.81166073030989        2.36256835368918
H           -5.66627842346942       -5.10431360901955        0.75597889998241
H           -4.29667126324450       -7.16426913175819        0.98965218009757
H           -3.24838502795209       -5.75304147909871        0.81446983786341
H           -3.48349013357845       -6.48513422153713        2.40113283734049
H           -3.84119570655408       -2.79523027383514        5.97976162355041
H           -2.70116143395130       -1.66904251920726        5.22890746274960
H           -3.34413666891461       -0.24117737556987        7.22195382679861
H           -4.99440918683909        0.35889628303776        7.37536335618721
H           -4.63867601832403       -1.32965467002305        7.71666226821130
H           -6.35177462702603       -2.11008893861766        5.99855629791612
H           -6.76652003317828       -0.41064037066300        5.75708165709874
H           -6.33078424199253       -1.41607620762990        4.37578474270738
H           -4.97029999841980        1.24175017159128        5.06008030857390
H           -4.58035513896917        0.18575054382841        3.68845076056507
H           -0.58212158058435        1.11285869821799        4.33506661315624
H           -1.17095144645834        3.88847067340254        3.63769618001196
H            0.47318320109564        3.71109752057003        1.15008371133565
H            3.02530096520281        2.37402600201839        0.55533376145690
H            4.57080780501656        3.54424862594059       -0.55018452564568
H            3.54438245112268        6.13413849826732       -1.77560398746815
H            6.14780709049024        4.60995218887930       -2.29055186482483
H            4.92011882460006        5.00673309751000       -3.49483269656593
H            5.87340885395286        6.29177946222155       -2.75324677814061
H            4.24627941073069        6.20347559247137        0.57741488036769
H            5.79927007647653        5.47468702789340        0.16285805500876
H            5.38869058328878        7.08496162392308       -0.43483743482192
H            4.84018528097581       -0.39511640970350       -2.81947104477036
H            3.18438511667437       -0.62111753241287       -2.24582215450469
H            2.41245876478877       -1.20698917563679       -4.51029616866341
H            3.78620510378738       -2.25779584519966       -4.07488511339492
H            6.13712768008099        1.56084423804558       -8.42378658546818
H            7.45584893256520        2.71128200405867       -8.67302885312961
H            6.50981158231437        2.14587928628247      -10.06467115353338
H            9.31271244196072        2.06688760283261       -9.93411330143916
H            9.75065026542408        0.36865819531556      -10.07107255552896
H            8.58022190820148        1.07977788619240      -11.20812907525158
H            8.82527307756996       -1.68698830148517      -10.38700717814149
H            9.07503981945183       -1.50249640499135       -8.63826306263494
H            7.86003896677864       -2.62596597421609       -9.24778613700428
H            6.90330759052414       -0.46181800117901      -11.50641707318756
H            5.95784851496138       -1.69472308015422      -10.66547877400852
H            5.50457700365798        0.00515380528538      -10.52301709504898
H            4.51592784933163        0.80341497726232       -6.74930117256498
H            2.85948477466768        0.63181965274286       -6.11400356062977
H            3.97281905349541        2.54539074632914       -5.03492406744020
H            5.30823190982040        1.51375612884389       -4.49928814497967
H            2.26125988185328        4.87659180554175       -2.92306626446967
H            2.29428771990341        3.47431983856078       -4.00061292461897
H            1.30315871923265        3.44356784455924       -2.52911101228941
H            1.35192383277963        0.80515671520149        1.58984511093124
H           -0.26983342400297        1.45583233124126        1.91229152689518
H            1.10115415242830        1.15102564161828       -0.79833225930257
H           -0.12914016821629       -0.82630242378531        0.25620527698448
H           -0.81184530732458       -0.26299439547905       -1.29497178498533
H           -2.86253518622640        1.03081401555461       -1.26202342452436
H           -3.55284990593955        1.50303053742552        0.31856149721666
H           -1.68064609629378        2.94455648357732        0.81394586652955
H           -2.21694012424698        3.35577191288801       -0.83729972592670
H            2.17218616592466        3.97881304110645        5.18841590270893
H            0.57720489561495        4.75263452780089        5.36816567189883
H            0.87294102137923        3.10440997920784        7.18982300697138
H            1.24639981540539        1.83666801441120        6.01146568372757
H           -1.40000138669262        3.35651556722513        6.24844087171125
H           -1.13893800177672        1.65342283494791        6.66097034465227
H           -4.26728959622953       -3.58456215046824       -0.45403854613345
H           -2.98767418790924       -1.61599588880303       -1.17163439701256
H           -2.43577444861740       -0.36149798805620        2.85658201445941
