151
 energy: -221.325843107336 gnorm: 0.008048752684 xtb: 6.7.1 (edcfbbe)
C           -7.76996851833724       -4.52008668741624        4.23663765633248
N           -5.83102710028576       -6.50704116745228        4.85691204734552
O           -7.10872110688377       -5.89605362050884        2.30870266325298
C           -6.66912536856438       -4.91984501801675        3.25461620767839
N           -3.96270726461835       -4.17399205843404        1.46840427852518
O           -2.37941519086810        0.40560588759165        4.56949946857834
C           -7.99717705922976       -5.41234614225387        1.32604511419652
N           -0.53537905166134        3.24031438073468        3.46872892881039
O            1.03596995042464       -0.56642677283688       -6.13611674268000
C           -5.50548536909310       -5.56537217565685        3.98279065429980
N            0.74545858748180        3.75940178820337        3.68679610455305
O            3.83993696442164        2.55023617936456       -2.42675982002989
C           -4.87959298554988       -7.15077932493080        5.50673342014427
N            2.33691112001559        3.77823677406725        0.39303875647605
O            1.94437793167800        5.96106563163170       -0.03088956179965
C           -3.52954561864901       -6.89241740674678        5.32601896862778
N            3.28287761629962        4.73040926900967       -2.48731476728798
O           -0.73125050882072        3.13630154155833       -0.80994368398940
C           -3.17918507733830       -5.90052968532464        4.42909134106080
N            2.29302591250078        1.29600956958162       -6.45892645345099
O            2.79802376846443        4.24721861699163        2.92844728213180
C           -4.17294385716017       -5.21206880519623        3.73142799622348
N            6.46201271562701       -2.01301693787249       -7.36684026721942
O           -3.14865913216176        2.37446553976464        3.81824755221348
C           -3.76332297824430       -4.12913417868822        2.83271323159118
N           -1.70253671215026        0.69428936695938        0.15057968919288
C           -4.37040197868951       -5.33070708121185        0.70958382658394
C           -3.16100779957736       -6.14011962961520        0.24283677692182
C           -3.11742930359156       -2.96505738198820        3.18503869945542
C           -2.70985228757691       -2.52792265902316        4.55611396907803
C           -3.66741115687271       -1.53270382248698        5.25347966291879
C           -3.18609487867233       -1.31588563785603        6.69114711426590
C           -5.08847449361027       -2.09448037491523        5.26894208378554
C           -3.69024867000191       -0.18343281118755        4.52637163046319
C           -2.24323990002711        1.66179968562579        4.19249655439292
C           -0.80470827519454        2.12093152270125        4.36542940071824
C            1.65929937648918        3.85212447232027        2.70730699909259
C            1.20891694732418        3.55800159019916        1.26965541442334
C            2.61894428667895        4.94894844674646       -0.17820516224022
C            3.81582604707587        4.88317269336036       -1.13207090179169
C            4.75572746613555        6.08224968542624       -0.96135316343242
C            5.87176286136003        6.04616541870826       -2.00236090054208
C            5.34576185991386        6.01243960867861        0.44826381544585
C            3.40035029578832        3.52386485317214       -3.04805259877539
C            2.99637855492402        3.28413765692230       -4.51079079828191
C            1.60450874032166        2.64015420847462       -4.55490804233181
C            1.25935729629096        2.18527638451616       -5.97709027092618
C            2.12658269322760       -0.03943474003955       -6.36919766550643
C            3.30693560035452       -0.84160412470997       -6.56569832737164
C            4.22900928354460       -1.61427032085919       -6.63000719455879
C            5.33016111844408       -2.57544443439564       -6.62202459921338
C            7.57124439924286       -2.92204661781434       -7.57811518578081
C            6.94335605052178       -0.74911862280977       -6.84352469611379
C            5.62624919874247       -2.88233124893369       -5.13528762889573
C            4.81278779533477       -3.84813239391189       -7.31339698612014
C            3.58241587517421        1.93778630949068       -6.55567932166313
C            4.04429770493002        2.37250712940116       -5.16463651718136
C            2.54199462396188        5.85279109632267       -3.02761792616797
C            0.65453295709374        2.16495428675475        0.98442720925175
C            0.15311931181147        2.07831612061210       -0.46891719134887
C           -0.53693722767646        0.72898620204381       -0.70663370550054
C           -2.64788192263403        1.72073030086432       -0.24891233296015
C           -1.96599366489737        3.08134996620112       -0.10765756127408
C            1.05818445553343        4.17756258545820        5.04747613403441
C            0.84284007498081        3.01413554975372        6.01134665644777
C           -0.57925991522732        2.48366176326760        5.84660443751481
C           -2.89792123233083       -2.25182593947396        1.97096230103591
C           -3.43595294575027       -3.03786554667559        0.92213501148894
C           -3.39863412819429       -2.60138929736849       -0.39868438865855
C           -2.83594579143668       -1.37129387233518       -0.66283636463414
C           -2.28243499364308       -0.59284747065767        0.36400886806628
C           -2.28902063839730       -1.03718775938327        1.66842294665919
F            2.97509428219634        4.46974006093231       -5.24811947041199
H           -7.36420641463459       -3.84167492315089        4.98018079034580
H           -8.58402176559917       -4.02105381719361        3.71834485240880
H           -8.14337641330858       -5.41188176380927        4.73139479493139
H           -6.31610500879341       -4.03079109354655        2.70665587071078
H           -7.53190831650102       -4.60465181961466        0.74659102627564
H           -8.20997203569857       -6.25922137634069        0.67493361912978
H           -8.93060608799348       -5.05111472517552        1.76459765436228
H           -5.22348628297846       -7.90389555929197        6.20215666915438
H           -2.77779283414711       -7.44469303396437        5.86544110022569
H           -2.14286408323930       -5.65527124552592        4.24503401570673
H           -5.01822356652875       -5.95347106273215        1.32900703240947
H           -4.94314393444125       -4.98716567527643       -0.15579071487199
H           -3.49181249214031       -6.99480431250517       -0.34009825239442
H           -2.50751630284146       -5.52556174047549       -0.37218641976227
H           -2.59459025708181       -6.49919749195824        1.09915358928464
H           -2.63759924722037       -3.40728585587619        5.19670756457274
H           -1.72504992822789       -2.06249929409630        4.49497694663183
H           -3.80250874607282       -0.56985112319634        7.18750019793134
H           -3.25058045054018       -2.24304919384375        7.25288627572168
H           -2.15472015627251       -0.97395991097019        6.69898547076288
H           -5.46529659359418       -2.20736451226088        4.25664832640493
H           -5.09107964866138       -3.07073702429108        5.74858233088375
H           -5.75705575988561       -1.43548114829687        5.81718078758764
H           -4.39699479007671        0.50624932387399        4.99953143163566
H           -3.98085707632745       -0.30565636195876        3.47927215547864
H           -0.13480687508854        1.29990531864668        4.08953826868663
H           -1.24481668084246        3.96113190140961        3.60533988412220
H            0.45982881163422        4.31914245119978        1.01572235933439
H            2.97962253230549        3.00730890058383        0.28388939321834
H            4.38294413244218        3.96951679561015       -0.93440198742477
H            4.17863821165427        7.00494012289321       -1.05816163567747
H            6.62441897090493        6.79584875280495       -1.76209543187161
H            6.34948200083574        5.06594402990564       -1.99983057324386
H            5.49183065271207        6.23957311423899       -3.00305916990599
H            6.00823010311903        5.15497778428716        0.53463241021779
H            5.91672553305924        6.91162860633200        0.66258793989990
H            4.55983954520068        5.91507303123889        1.19469872832040
H            1.62503147724178        1.77404727622318       -3.89055240355958
H            0.85061294001974        3.33674198601799       -4.18851329723822
H            1.19858996128399        3.04814938288571       -6.64430957578264
H            0.31043582228077        1.64773011960236       -5.98135151706168
H            7.23366256177089       -3.81817307521795       -8.08977186665491
H            8.29459685154102       -2.41893073542165       -8.21735520709206
H            8.08184882951086       -3.20688496786081       -6.64669825193630
H            6.09991279218024       -0.10287591834929       -6.60991059626258
H            7.56091332866960       -0.86307285676512       -5.94089224571020
H            7.54760240230922       -0.26955810619309       -7.61352882442218
H            4.74177673697466       -3.31372222076079       -4.67416839525824
H            6.44533250338524       -3.59336237737786       -5.05752975840875
H            5.88614363867932       -1.97411917003628       -4.59505867591099
H            3.80903844341707       -4.06833351127733       -6.95797118944328
H            4.77575314148831       -3.69487302293864       -8.38855789525297
H            5.45221060337830       -4.69692978991574       -7.08603755102953
H            4.30231515866526        1.25249340787114       -7.00178675664858
H            3.47740613765933        2.81645393837473       -7.19846754161044
H            4.99115138332516        2.91037368828983       -5.22871296071355
H            4.17824497252383        1.50365050923973       -4.51748339216215
H            1.69410303001266        5.51119778025620       -3.61443322386446
H            2.16065033485929        6.43533019950782       -2.19146699167033
H            3.17631095173628        6.48266126140188       -3.65149626653562
H            1.43815755370557        1.42080358459153        1.12432682468576
H           -0.17341089012054        1.94264313993946        1.65224191228506
H            0.99180061851529        2.19752445312275       -1.16538688955418
H            0.12977003515552       -0.09121338215879       -0.44372019684901
H           -0.79610165526374        0.64671282943995       -1.77714166190128
H           -2.99170076754169        1.58272434721848       -1.29081745057840
H           -3.51252602997994        1.68153802771407        0.41720573310271
H           -1.81012052383182        3.29391731192927        0.95678166467285
H           -2.57908529063917        3.86938506965732       -0.54762998352141
H            2.09242510197240        4.51829005819957        5.04812045451357
H            0.40028232761961        5.01390868395981        5.30841027650618
H            1.00756169055501        3.35447047061085        7.03248775833482
H            1.55960734104179        2.22294398368300        5.78927492131871
H           -1.30028797536333        3.25091444591778        6.13932236398266
H           -0.73870614675378        1.60269695076727        6.46736276221514
H           -3.80323396067016       -3.19906917592706       -1.20131932390294
H           -2.81741500546465       -1.00319840060616       -1.67981605986061
H           -1.81956879169622       -0.43302263768598        2.42589330244978
