151
 energy: -221.322095430712 gnorm: 0.004825025234 xtb: 6.7.1 (edcfbbe)
C           -7.41612465275271       -5.17017655519437        1.73343716304612
N           -6.59164098071930       -5.88619411224783        4.32444788756324
O           -5.55734468259159       -6.78789335139993        1.70798790693182
C           -5.94845766082638       -5.45798046316432        2.04578033708217
N           -2.57595034612532       -4.80634236783882        2.53026183640329
O           -3.17022476723278        0.93450573901935        2.52046882148550
C           -5.58264401309497       -7.08530419398597        0.32889411441748
N           -0.54553382025766        3.30408063259410        2.00767593833151
O            0.09903677940176        2.04191940993837       -4.59048226517238
C           -5.68701531949286       -5.32645396758634        3.53318732803116
N            0.30918154666551        4.05315105412339        2.82395100209527
O            4.96195907937169        2.53021091277551       -1.63349935279888
C           -6.43222615775005       -5.83007733685823        5.63360047795467
N            3.51421018173395        3.42670460383663        1.23411646454893
O            3.01660523955595        5.29933997670372        0.09541448346252
C           -5.36117172109937       -5.19060788224329        6.23930488094034
N            5.21350133178783        4.75915989979458       -1.41423725091770
O            1.88099977065216        1.38488684926735       -0.75000343796645
C           -4.41346543789086       -4.60492517632513        5.42094167714012
N            2.12895016547968        2.83843929186581       -5.22664694706600
O            2.42191109629524        4.56638888209732        3.41361641718587
C           -4.55450508367740       -4.67489767623396        4.03442585974543
N            2.53780704494363       -2.03121393929430       -7.77971420987709
O           -2.63510497002006        2.12327019667873        0.69738069153984
C           -3.51262256273403       -4.05342115121090        3.20494716027926
N            0.53746500034103       -0.66272233869330        0.61684887861183
C           -2.48537499619723       -6.24445911557819        2.56475807895074
C           -1.71805529795865       -6.73129832091991        3.79284698466098
C           -3.23028034552884       -2.71239493099628        3.08051303393774
C           -3.98635426864487       -1.57372199572725        3.68778606653714
C           -4.89559137873201       -0.76416997259776        2.73127363210975
C           -5.79275184984895        0.14760317791035        3.57251249631540
C           -5.75696411691059       -1.70446805927250        1.89065858644955
C           -4.07474131961767        0.10733547244952        1.77259351055718
C           -2.49381424064644        1.86344274917337        1.87157951741799
C           -1.53263628760764        2.58501052391209        2.80363530609108
C            1.64189143013223        3.96050512303867        2.68802254411311
C            2.13262485545580        3.10697656661073        1.51443293259897
C            3.84408957095579        4.48396084328904        0.49113716129589
C            5.30921358651693        4.53191053720934        0.03308839915591
C            6.18113507510043        5.50580992374285        0.83014081399239
C            7.58467895422038        5.56927099062556        0.22888125625477
C            6.23543809169041        5.02105348573787        2.28027928749714
C            4.86486562222720        3.66285509030030       -2.10822886257694
C            4.20156828895730        3.79724782650073       -3.48525444398118
C            2.71168301602301        4.04829894306753       -3.20716682417170
C            1.93071832770048        4.08310695304560       -4.51970258785319
C            1.19512348887313        1.87284086929758       -5.13049535745057
C            1.50293840224889        0.61115595607113       -5.74785729751629
C            1.52609660323315       -0.49539511306530       -6.22302661947714
C            1.58646193452054       -1.88128280116113       -6.67137728453647
C            2.84421183055293       -3.40728439702903       -8.11484665060916
C            3.74800615839922       -1.24776961935210       -7.66032130235531
C            1.92993795652498       -2.71305713629714       -5.41545823258551
C            0.17384808895843       -2.23862677857836       -7.16932926171008
C            3.50674254267363        2.59314237282032       -5.58166372495014
C            4.37313304438248        2.52638063419474       -4.31938463747406
C            5.11167799335039        6.11414578905952       -1.91742557999596
C            1.98497561849434        1.60197445001963        1.71329422447561
C            2.40766739381240        0.82610572212930        0.44815185670321
C            1.98207555008945       -0.64530890239170        0.58298277939390
C            0.00246643132402       -0.17495141838561       -0.64112563992155
C            0.47294085347083        1.26021216969499       -0.86317123243432
C           -0.31382503071096        4.99918618382376        3.73933785856738
C           -1.32653595641993        4.27787407627650        4.62440086984253
C           -2.31809229521966        3.51184952258812        3.74950930452374
C           -2.04128362716559       -2.63043323561718        2.29955299566926
C           -1.65326343727305       -3.95837330649415        1.98625540905057
C           -0.49277576957163       -4.21095166397411        1.26071779643014
C            0.25256180215309       -3.13860536453257        0.81490589184825
C           -0.13131407612993       -1.82117488310818        1.10135303940301
C           -1.25086382034327       -1.57144088281326        1.86878385225521
F            4.72483651858590        4.85713021277910       -4.23219201089146
H           -8.03499295687608       -5.92134563691251        2.21387214473841
H           -7.68263787864283       -4.19225847307003        2.12156132485075
H           -7.59210531528830       -5.17703136994070        0.66177856624839
H           -5.30299504472293       -4.75252708514908        1.49686455851895
H           -5.02524722676377       -6.33486794201798       -0.24248830481504
H           -5.10122920100323       -8.05581975147770        0.22966069956887
H           -6.60448390756128       -7.14818080090933       -0.05298086809926
H           -7.20311834493017       -6.31629907414076        6.21541495273930
H           -5.27379780314704       -5.15852076273718        7.31298041742034
H           -3.55480724146379       -4.10202005367031        5.84124079777574
H           -3.49500480368848       -6.66218524604911        2.56867924548147
H           -1.98075632320749       -6.57444522649508        1.65367343390648
H           -2.25326915069478       -6.46545428350140        4.70173271078178
H           -1.61287485496992       -7.81131218574223        3.75662271899373
H           -0.72916512291103       -6.27982654773811        3.82546567001969
H           -4.62245344057229       -1.97270754464406        4.47979416061842
H           -3.27296388193733       -0.88059732101175        4.13702010822940
H           -5.18759039289284        0.80266476840949        4.19329618363224
H           -6.41858799935612        0.76125210813420        2.92869219905549
H           -6.43849251073823       -0.44446876451370        4.21511226109554
H           -6.33493143851552       -2.35195499004585        2.54385036235014
H           -6.44055531635716       -1.14061207588677        1.26121216701218
H           -5.13336627633931       -2.32471950138480        1.25197287583727
H           -4.72707079314713        0.75290780937491        1.17527820624539
H           -3.49005718142721       -0.51042041203510        1.08452705791677
H           -0.99978015030854        1.83437657141004        3.39858120247869
H           -1.02028657975168        3.89996604389630        1.32743383785081
H            1.55602936514594        3.42139690322018        0.63625160177874
H            4.22500601915333        2.81782061907715        1.60741367156761
H            5.73726683328433        3.53036311386760        0.14050103447654
H            5.72511446923916        6.50000877875076        0.83237042461826
H            7.59585389949308        6.14943395177545       -0.68843145563340
H            8.27103314324536        6.02860411992275        0.93308808140231
H            7.93908095342803        4.56730788627525        0.00310246701203
H            5.23829915178254        4.98394115132139        2.71482341371649
H            6.68362550794866        4.03191482815951        2.33526564808615
H            6.83838885768505        5.70331520974353        2.87313322555928
H            2.35373801996390        3.22762963095853       -2.58002364302818
H            2.56689129416784        4.97611438414138       -2.65370083337672
H            2.28647727069750        4.90463796147409       -5.14676924081980
H            0.86386045143377        4.20034930067630       -4.32464914205847
H            3.51408505222148       -3.89018978109141       -7.38855350572030
H            1.92794131991181       -3.98499124899056       -8.19325523587383
H            3.33535897494326       -3.41536389103232       -9.08738433987990
H            4.33325423377357       -1.38608739191577       -8.56976010565787
H            3.48981127700126       -0.19357848768675       -7.57461698629063
H            4.37617168583522       -1.53031391125243       -6.79932734129421
H            1.25650414668159       -2.44157280483909       -4.60639512729857
H            1.81947138725603       -3.77408232392872       -5.62140099370507
H            2.94995576465023       -2.51331016946966       -5.09383469722372
H           -0.56594156889053       -1.89374741237581       -6.45103904298784
H           -0.00624704162296       -1.75021914598708       -8.12245009220002
H            0.06300757856611       -3.31161269056825       -7.29203269064155
H            3.57846824680903        1.65688993446259       -6.13511139470563
H            3.84871878637803        3.41626582280909       -6.21522694452128
H            5.42221832670163        2.41230492058242       -4.59004956783010
H            4.07894547802286        1.68072866438552       -3.69716269592687
H            5.89148966494368        6.29566291713060       -2.65707759519650
H            4.14166199497574        6.30913899166889       -2.37111120116366
H            5.22882644212683        6.80386359972657       -1.09062039241769
H            2.60265296835814        1.27648364631518        2.55010924795357
H            0.94448245391257        1.36568603000835        1.92607702492098
H            3.48929439125605        0.89421227802850        0.29427285745466
H            2.36739374387551       -1.06342626045273        1.51298271512650
H            2.39830954030443       -1.21018535095753       -0.26996832800983
H            0.33221702782402       -0.80492894659872       -1.48814292332839
H           -1.08732718469373       -0.18363068476995       -0.60237971258774
H           -0.03198357466969        1.91936485798882       -0.14698503651919
H            0.22790252328388        1.58338076084230       -1.87840210253719
H            0.48627105469224        5.45305903346032        4.32355305798994
H           -0.81122174303153        5.77584038653218        3.14669383040039
H           -1.85336425478605        5.00626867109864        5.23967608777625
H           -0.80037694929212        3.58333271178644        5.28030732097240
H           -2.91104033888043        4.21081259013252        3.15519486772535
H           -2.99243423428633        2.91630775171355        4.36240029356513
H           -0.17615356705971       -5.21919228787447        1.04063325482906
H            1.14804842515274       -3.31348331546228        0.23678880963250
H           -1.47810210778370       -0.55218275885585        2.12391094288583
