151
 energy: -221.321414862730 gnorm: 0.008245127813 xtb: 6.7.1 (edcfbbe)
C           -6.52680108346525       -4.32321089491093        4.45660091083452
N           -5.29706961359874       -6.63975521775315        3.44053136530161
O           -7.07281904680911       -4.65546634234902        2.08030814726521
C           -6.02804678946931       -4.38324609463153        3.01270662191340
N           -4.25127118584262       -3.58648816269247        0.36272439565177
O           -0.40292687663621       -0.53512004963552        3.37977646476511
C           -8.00025529397284       -3.60674833534092        1.91580990729959
N            1.36265840666819        2.41943433188033        2.55794696833598
O            5.58585841302245       -0.85850127619849       -4.76142248486796
C           -5.00768896189119       -5.49288263923476        2.84465009460582
N            2.66650255012483        2.77966283485154        2.20233705426127
O            4.46967181037311        4.25603623044427       -3.66407140801392
C           -4.45400728928710       -7.65258561612184        3.34364679540450
N            2.33042923563377        4.35303282535512       -1.06907100776859
O            1.10191899042835        6.24836678158169       -0.89614029531598
C           -3.25332018225495       -7.57440160404089        2.65625685227573
N            2.36365557070291        5.03648089790788       -3.76206646944525
O           -0.96330407873836        3.93172109922162       -0.72264916219383
C           -2.94312334216222       -6.38181450332326        2.02695340221608
N            3.56467243361161        0.11862989607893       -5.12213001478585
O            4.11123115127267        3.51154759527244        0.64521073150880
C           -3.83179732312545       -5.31091078426436        2.09993691070443
N            3.98213578687837       -3.06948994806854       -0.22003762564924
O           -0.77542890152101        1.55265516641135        4.11510879390618
C           -3.50584177123468       -4.04795680540858        1.42749075546199
N           -1.73812435883745        1.27503495859957       -0.34477710028874
C           -5.21683692416238       -4.34978712748202       -0.38851685561961
C           -4.55793395548896       -5.06211756047997       -1.56914414696537
C           -2.49743031925796       -3.15859822912526        1.72482789990401
C           -1.43102212117352       -3.26824911150245        2.76685945060114
C           -1.67508637328492       -2.50351217357408        4.08906287105884
C           -0.56037766043177       -2.87921504315801        5.06953296190079
C           -3.03301539293178       -2.87743190426836        4.68142764105092
C           -1.66998818684323       -0.98203404507904        3.88653111953735
C           -0.08300211886597        0.73332286134293        3.55020350585727
C            1.30640390155329        1.03129593837906        3.01300103975079
C            2.95498578194375        3.28934570351466        0.99452706525034
C            1.78575892612859        3.65053790801799        0.07377308876499
C            1.96252263576021        5.58603935434719       -1.45174794681152
C            2.69133725959421        6.02958527625124       -2.73696951631548
C            2.38042291297072        7.47175092160779       -3.15760856379983
C            3.02648285150819        7.78107306342754       -4.50638557020385
C            2.91110345547342        8.43223590163834       -2.09372750598536
C            3.32395231921889        4.17534533200333       -4.11424260616394
C            2.98835854198352        2.93260887509904       -4.96288145625062
C            2.40406143119662        1.91076856349029       -3.97517865883599
C            2.27780225392164        0.52910541905556       -4.61518779708285
C            4.43961801883587       -0.60535912284323       -4.38921292992801
C            3.94263728882715       -1.08522774499571       -3.12581045990836
C            3.70623354450062       -1.48221642517579       -2.01325885915744
C            3.25583069881755       -1.87730355289752       -0.68440664377959
C            4.42959808325523       -3.96965864713391       -1.26310375129673
C            3.32819912020447       -3.79260438512671        0.85200768745675
C            3.61194849370838       -0.71710717586587        0.26253281011949
C            1.72300406696675       -2.04657637431624       -0.76062668384501
C            4.04838758161434        0.97086113025969       -6.18612367534423
C            4.24338906255314        2.39773185553452       -5.65760006674125
C            0.99134046058596        5.05468060747500       -4.22961386480928
C            0.97547014272314        2.43706977383248       -0.40169514587349
C           -0.20690067396797        2.87340814227679       -1.28491148664815
C           -1.11328504018326        1.66998236931930       -1.58709149303195
C           -2.57723987998674        2.34736023418772        0.16056911105239
C           -1.68606518617093        3.55562185664281        0.43749519060401
C            3.70309065088725        2.58431385869335        3.20705770047374
C            3.71520861744523        1.13285151494237        3.67843059330374
C            2.31395057452088        0.74321102159086        4.14370456317966
C           -2.63144672791160       -2.08548862810344        0.79710677445694
C           -3.73152503490996       -2.39012547977764       -0.04068627234555
C           -4.13453056595388       -1.51719751595859       -1.04709450726340
C           -3.46855098828106       -0.31736098328807       -1.16815993394074
C           -2.38935067809673        0.00304329539706       -0.33057444180607
C           -1.94214237756028       -0.88999571351480        0.61693382631187
F            2.04568847119140        3.20880001823215       -5.95778052568730
H           -7.05037990161909       -5.24558722938588        4.68936029791460
H           -5.68018597239628       -4.21402215394287        5.12757278337412
H           -7.19442106083739       -3.47730409397693        4.59545162768269
H           -5.56399746659741       -3.42035853087374        2.74014093579476
H           -8.59876032211737       -3.87060074371986        1.04482082959193
H           -8.65538440083964       -3.50169700121907        2.78570896093709
H           -7.48595087703258       -2.65421585237949        1.73326956614474
H           -4.76075830970985       -8.55879487240496        3.84778725214995
H           -2.58758725909737       -8.42096094478271        2.61117798372095
H           -2.02568791880898       -6.27633308367333        1.46677068888039
H           -5.68880898012462       -5.07657403492166        0.27551917486435
H           -5.98987257177929       -3.66528424535129       -0.74749931642333
H           -4.07597901870827       -4.34061105693709       -2.22616791871546
H           -3.80637338807974       -5.76461420656871       -1.21411871301902
H           -5.30697366761374       -5.60897256243518       -2.13468177576635
H           -1.29621206022183       -4.32075058098185        3.02352073154726
H           -0.49804415502238       -2.89833005484624        2.33666850267218
H           -0.60000209781950       -3.94125641312013        5.29542125240383
H            0.41204696736150       -2.65144832434761        4.63989476571475
H           -0.66726140880864       -2.32553905878577        5.99909390525708
H           -3.16107564971364       -2.42074260008312        5.66025125883881
H           -3.83633387579481       -2.53396007964806        4.03599935954294
H           -3.11221191916266       -3.95622930163249        4.78730819885597
H           -1.85737954216310       -0.47089920892190        4.83664940813830
H           -2.44683717506045       -0.68061919472890        3.17791240628702
H            1.51546965237278        0.38321611334375        2.15690252217583
H            1.00637528417336        3.02771983107102        3.29737946772172
H            1.12344108332267        4.34991407493149        0.59501781398314
H            3.18724469428379        3.96973147027747       -1.44685262942110
H            3.76974517280754        5.94408994316102       -2.55941184482027
H            1.29678042701305        7.60107900022648       -3.22382788399622
H            4.10044089534410        7.61325795302440       -4.45235276177888
H            2.62649363128534        7.15479685073312       -5.29874201642489
H            2.85155445045887        8.82005337039790       -4.77100638548090
H            3.98387897467718        8.30094903097389       -1.96400786700995
H            2.71831084582637        9.45926158075717       -2.39316512175042
H            2.41808797473459        8.25118800359670       -1.14138881699126
H            3.08807260867066        1.85259224662791       -3.12561426202785
H            1.42991974237450        2.24652434929536       -3.62252784917952
H            1.57689254223582        0.56778644548570       -5.45314573045829
H            1.92605312796327       -0.19574723130752       -3.88073155919064
H            3.60280896743271       -4.43587857427169       -1.82712834065733
H            5.07028543299673       -3.43422707009943       -1.96512547539269
H            5.01772547563950       -4.76101437321764       -0.79964139878688
H            3.03098895079589       -3.10667592929842        1.64473550213733
H            2.44497922404929       -4.36044032717362        0.52064216789716
H            4.05143283840300       -4.49603692079998        1.26561765708020
H            3.37912186256757       -1.00465541530201        1.28797227153190
H            4.67869158084646       -0.50272102582123        0.19613618344641
H            3.05528396692403        0.18287806053855        0.00062701941943
H            1.46662163687081       -2.91787892490458       -1.35876695208550
H            1.29821727547702       -2.15852491049645        0.23205609507598
H            1.27908498492303       -1.16936229692660       -1.22511540223033
H            5.00207375730810        0.57382302245568       -6.53494397304360
H            3.32332384239311        0.96235363795747       -7.00274809278861
H            4.49986570919162        3.06479813390715       -6.48097081475091
H            5.05948036242414        2.41760950743827       -4.93388037374102
H            0.89503023057951        5.68121940443150       -5.11810980338558
H            0.63168269113718        4.06162285384993       -4.47756714624727
H            0.36597433746146        5.46474288849672       -3.43801516030749
H            1.61677483494987        1.77711875835210       -0.98618938229028
H            0.58507946730012        1.89875487263454        0.45787207704575
H            0.16831774437203        3.30337713896248       -2.21725276098801
H           -0.51988599714530        0.83619035350429       -1.96567625537560
H           -1.84797382918932        1.96476239679874       -2.35822926715795
H           -3.36248597808212        2.63164340311011       -0.56367386589305
H           -3.05283090788144        2.02129661661499        1.08640187806099
H           -1.00140680323692        3.32261599775894        1.26184458712594
H           -2.28186128243417        4.43127735456486        0.69882280435776
H            4.65211696900312        2.86642233430636        2.75172570054647
H            3.49404809427866        3.25278429717786        4.04983132518562
H            4.42836111651014        1.02367387869412        4.49422722552416
H            4.02950387342216        0.49155928938521        2.85535601615276
H            2.03549232895462        1.33256850833480        5.02130487053241
H            2.27425100101865       -0.31207920197108        4.41165082025945
H           -4.95849972651462       -1.75399931268576       -1.70271183071974
H           -3.78395227622355        0.39561259210867       -1.91621614328150
H           -1.08301602466087       -0.63672681797006        1.21290685742478
