151
 energy: -221.321875115494 gnorm: 0.008579612617 xtb: 6.7.1 (edcfbbe)
C           -7.86269019798245       -5.33635431353170        2.81928097644749
N           -6.69046204221189       -5.41036950853420        5.37750156731265
O           -6.03915442449560       -6.99233809680831        3.02100664260046
C           -6.37007226609544       -5.60309427948421        3.00630457757424
N           -3.00674903950095       -4.76697221840320        2.77123708683645
O           -3.56729076835117        0.97096261216637        2.18980478637858
C           -6.43122495823972       -7.72701764169994        1.88027035855705
N           -0.78096316239382        3.07424193987552        1.39959468534578
O            1.56654190998238        3.60206582581964       -6.03253782898934
C           -5.91085868615250       -5.08180476668589        4.35460957819191
N            0.11032297234112        3.86164693667914        2.13617879066279
O            5.26658800146120        2.17632620713428       -1.63044426994551
C           -6.36679881069984       -5.01972479392572        6.59528851306156
N            3.40490471220567        2.81809109232346        0.96797443114017
O            3.37274733229616        4.75883782797727       -0.16644074063993
C           -5.23975975010021       -4.25966706989405        6.87233265894308
N            5.88975276957687        4.23942883872147       -1.00732904488611
O            1.55316986697832        0.91826980090416       -1.23450326197455
C           -4.42409324624623       -3.91161685372331        5.81359620925987
N            3.82386863562628        3.53181791882910       -5.79979659150878
O            2.20868452342121        4.31494768381902        2.78140325607297
C           -4.74372906654861       -4.33001285343531        4.51850615544397
N            2.47337929147225       -1.75423927635944       -6.52635553337940
O           -2.92315238986856        1.82968014153155        0.22072894152517
C           -3.83808609884578       -3.90162346780568        3.44505807012028
N            0.08271136799141       -1.01819541606202        0.13818574711680
C           -2.88238814901525       -6.17929274740036        3.03323722915444
C           -1.93585094118271       -6.44810317695398        4.20312369707515
C           -3.56669833796046       -2.59906576804728        3.09015631058756
C           -4.25687673477082       -1.38356803220541        3.61858268916251
C           -5.25619404614115       -0.69816821997229        2.65657936723803
C           -6.11886738731959        0.27284965539682        3.46833325465282
C           -6.14793909833935       -1.73662869624773        1.97663499209267
C           -4.51764483689096        0.08911403163256        1.56701484174305
C           -2.81433434381411        1.73452317491409        1.42268119412115
C           -1.80636355458628        2.50212120593825        2.26495998938272
C            1.43671917357038        3.67388076068335        2.07535256754947
C            1.96440499642304        2.69304074008294        1.01885333121960
C            4.00052482060533        3.86195492602744        0.38985537530221
C            5.53773475018237        3.81168047921752        0.35590751326294
C            6.19414597994786        4.60147039110355        1.49408224308054
C            7.70755904972677        4.37836966808964        1.49321625976740
C            5.61425834538763        4.14397396159429        2.83276695004527
C            5.55045566180303        3.33456305419571       -1.93950086715466
C            5.43745224220291        3.72036317190373       -3.42608280446567
C            4.14380660594331        4.52532048508453       -3.60644320288426
C            3.87453655122296        4.78777781288977       -5.08831776929031
C            2.63671211234365        2.99576666779895       -6.13456570554287
C            2.66930863634405        1.65764896698882       -6.66676679758018
C            2.47914262714979        0.54424018999777       -7.08396409694056
C            2.33991675799668       -0.80115859851998       -7.63758196381373
C            2.48764622329291       -3.14986146324607       -6.91269942255773
C            1.53168550268933       -1.53783086825911       -5.44681679966354
C            0.98825011633344       -0.86161122499147       -8.37879098599129
C            3.49057169304778       -0.98737477669313       -8.64064987761412
C            5.06597620608387        2.79680196320815       -5.74784585706721
C            5.42106307823509        2.46231474478348       -4.29794199647768
C            6.09808924355549        5.65624447476448       -1.22622751677249
C            1.59287011852031        1.22861079130396        1.21737687058357
C            2.01875623322099        0.38379402483774       -0.00170724256328
C            1.52750632610771       -1.06226999101285        0.17757870256631
C           -0.37221881757140       -0.58305555055258       -1.16594602323285
C            0.14616645873911        0.83699736363857       -1.39788746976668
C           -0.46932121639580        4.92959027459969        2.94017925928232
C           -1.50073535278428        4.35297051033153        3.90525129022068
C           -2.53820536402828        3.55912442837700        3.11377542930595
C           -2.48113021748263       -2.65640535135121        2.16896017031427
C           -2.14841578586855       -4.02591955044906        2.00634061719366
C           -1.07747823640784       -4.41560794918704        1.20730793228644
C           -0.33821353132330       -3.43777114114226        0.57537668188827
C           -0.64737148466352       -2.07949390030305        0.73719041706278
C           -1.70526911301511       -1.69189270483864        1.53413411535561
F            6.53027939807042        4.49855497969203       -3.84269268619536
H           -8.18703728885505       -5.61570039522147        1.82052110383608
H           -8.42044312946851       -5.90101679496151        3.56013463459455
H           -8.05665211540407       -4.27794043853594        2.96288457540788
H           -5.79911204072211       -5.11007180307011        2.20013118783490
H           -7.51385464964686       -7.87557254391326        1.84940706274916
H           -6.10117769904258       -7.23213428000599        0.96063322065299
H           -5.94012587536414       -8.69366099812548        1.97317553797578
H           -7.04672633933189       -5.32795022018652        7.37823285280077
H           -5.01006646241272       -3.95521515510829        7.88021493862333
H           -3.52885164121335       -3.32790830237495        5.97054706958255
H           -3.86971120717088       -6.58951645085568        3.25581426210940
H           -2.50352592443870       -6.65841283064708        2.12786445269083
H           -0.96708238309902       -5.98542568166657        4.01959698348807
H           -2.35069228116032       -6.04104073714930        5.12315722344136
H           -1.79719821239970       -7.51938301007180        4.32872039472247
H           -4.81295238001931       -1.67183835493845        4.51242956273825
H           -3.50689035426128       -0.64454489286593        3.90801462582737
H           -6.68801837918359       -0.26823185922602        4.22021335825698
H           -5.49262388988235        1.00853421401236        3.96595421099582
H           -6.81788948196659        0.79439639592435        2.81897055251160
H           -6.87390581001773       -1.25416021473656        1.33479283538089
H           -5.55559643115402       -2.41702987406100        1.37465415940389
H           -6.67653484111038       -2.31732048393120        2.72757149368296
H           -5.21370765060408        0.68522390989839        0.97125437566491
H           -3.97973170923604       -0.58249071180728        0.89418450401792
H           -1.31118209089837        1.79172106504965        2.93723312470904
H           -1.21484549785408        3.60997887262012        0.64788649249783
H            1.57725146579622        3.04403566699314        0.05205939823206
H            3.95624685191118        2.13692707978106        1.46455781006716
H            5.84880810352875        2.76428890389507        0.43404760689686
H            5.96595994334716        5.66276831807502        1.37575875146390
H            7.92754161920701        3.34812030667196        1.75797993987034
H            8.14862311295855        4.57886116963713        0.52144210599036
H            8.17600964168610        5.02659378949044        2.22777136855236
H            6.10751347251586        4.67755734288978        3.63888059093529
H            4.54566424112187        4.34450804897548        2.89413991178371
H            5.78304334391020        3.08002537906699        2.97804920526696
H            3.32889049580486        3.93765468189784       -3.17689353066273
H            4.19754676005086        5.46787796733101       -3.06451874504150
H            4.67638491920883        5.39882519261600       -5.50961493792785
H            2.91726724000715        5.29409913835055       -5.21529359651886
H            2.74214935872716       -3.73549814469385       -6.02950164058372
H            1.51780812596729       -3.50823040973342       -7.28965609863798
H            3.25090404553924       -3.32423491639444       -7.66510274364440
H            1.87804869271882       -2.09235138485600       -4.57452931445854
H            1.49715014494169       -0.48065220665921       -5.18953652076588
H            0.51211855835189       -1.87758010505354       -5.68588992073839
H            0.83354019321402       -1.85343123267246       -8.79850644479147
H            0.16850126873390       -0.62740214434051       -7.70200188976187
H            0.98337065385958       -0.13314363176113       -9.18661537243000
H            4.42447040051490       -1.12995214035456       -8.10467680420271
H            3.30581087859213       -1.84039434116639       -9.28668043019896
H            3.57246123906641       -0.09889888473694       -9.26163414400169
H            4.97276626611118        1.88026570668505       -6.33167847516865
H            5.84999222271941        3.42649218507502       -6.18198335805112
H            6.40216188157304        1.99067111382933       -4.25184426854389
H            4.68989022498809        1.77347704716455       -3.87604832903557
H            5.19821334992637        6.20501347651239       -0.94035866519412
H            6.93289269969620        5.99214906299442       -0.61544182884221
H            6.33895367420721        5.86128552475866       -2.26125093162722
H            2.08665126352036        0.83910263091181        2.10795355517677
H            0.51613466918837        1.13473991426439        1.33989210116453
H            3.10790932175331        0.40474994064928       -0.11782393147401
H            1.84602408559953       -1.44819127763870        1.14727154777695
H            1.95991859427878       -1.68729949123597       -0.62432010812753
H           -0.00253714515177       -1.24709324913226       -1.96673189847135
H           -1.46147038121154       -0.57384074367881       -1.18701205861370
H           -0.36384157784339        1.52176385040484       -0.71035414423139
H           -0.04191619061598        1.15598081851256       -2.42491944557483
H            0.35026784664299        5.41863716623412        3.46525749281883
H           -0.94422460329759        5.64947092138223        2.26357500689203
H           -1.97833333224256        5.16342205856888        4.45333982152904
H           -0.99966033098356        3.69761564483958        4.61836941730838
H           -3.09988378635037        4.22712552143619        2.45543509121097
H           -3.23834366209942        3.06136416916851        3.78373005251495
H           -0.81679055363410       -5.45622369444877        1.08691491024621
H            0.50007523088610       -3.71727585062853       -0.04615977974006
H           -1.87640760783139       -0.63893377104794        1.66912290794487
