151
 energy: -221.319699483469 gnorm: 0.008722815230 xtb: 6.7.1 (edcfbbe)
C           -9.02416151875532       -4.29146532223457        3.65510959732412
N           -7.79720501768567       -5.60706527542480        5.69312217614943
O           -7.08780673117769       -5.27995421075623        2.52468039626031
C           -7.50594026631625       -4.43592914857882        3.59216614870224
N           -4.14848821876550       -4.90364428867343        3.20289847332382
O           -3.37975163045995        0.69239709223395        4.43084275660260
C           -7.16044575242535       -4.70798503828520        1.23276475816526
N           -1.00628452580943        2.88646684997392        2.91953049796280
O            2.73711144671066        0.75059581046789       -7.96067784662394
C           -6.94174248056082       -5.00114762832696        4.88462362290262
N            0.12826767115085        3.59729556970153        3.32622805470483
O            5.14489430742640        2.49635952282658       -2.53957741543185
C           -7.37542757566361       -6.07403462230751        6.85581248754751
N            2.52887048436448        2.82526877987937        0.69516011278988
O            1.71553564317665        4.68409947121472       -0.26405882707189
C           -6.06878503461764       -5.94297168833439        7.29655316608559
N            3.91347654206462        4.34132007032057       -2.15475233720397
O            0.35392774169923        0.89165055421057       -0.61647313981195
C           -5.16300364719529       -5.32263160693307        6.45407411663541
N            4.06636200191522        2.36576579481238       -7.07366312383531
O            2.30456027583558        4.07610460350682        3.04181705813606
C           -5.58530505563320       -4.85020706195308        5.21411522932815
N            6.50249194668501       -2.00106275782803      -10.03121523489903
O           -3.58512674511286        1.99322248584106        2.61890704027492
C           -4.60986729609299       -4.22614435016822        4.30914315843107
N           -0.93504688489411       -0.93642854449118        1.08980839708117
C           -4.34671583490940       -6.30874504847626        2.94717678048888
C           -3.35156955829877       -7.16462580665883        3.73154387822411
C           -4.01809851196779       -2.98650354261992        4.40085667269689
C           -4.12102602742091       -2.00593697776118        5.52893131627553
C           -5.06746207020465       -0.79611198066763        5.35654433529608
C           -5.02198885522636        0.03699332205276        6.64034126634010
C           -6.50173367544158       -1.25561947897780        5.10112690516137
C           -4.64745220494963        0.07648358925437        4.16756324723410
C           -2.96695842024960        1.62241854180034        3.59161510751432
C           -1.64662839548559        2.21775457987518        4.04582273275408
C            1.29866636864306        3.47377374862462        2.68140532915441
C            1.30582574113802        2.58633721618869        1.42895762179189
C            2.64824840818316        3.90978798998573       -0.08228020306490
C            4.02840094548182        4.10057840937020       -0.71769005167650
C            4.79046435369795        5.22859930452244        0.01759014990100
C            6.05623170934774        5.60803029989826       -0.74870964984479
C            5.14790958103198        4.76494105584432        1.42797938491834
C            4.51133695314307        3.46228881771573       -2.96803133857021
C            4.41055548938021        3.61075486625254       -4.50064192984481
C            3.04265715107655        3.11263221122036       -4.97514201147122
C            2.96650871925583        3.10890380928916       -6.50307835104674
C            3.85903531657274        1.22856638976811       -7.76097250778284
C            5.03349592762696        0.61048911395132       -8.31698692848970
C            5.94049863033645        0.05433966427035       -8.88258240115583
C            6.98854058729971       -0.67995115192899       -9.59087139738212
C            6.13993630018963       -2.87859117229902       -8.93277833568710
C            5.41139456675036       -1.92861633580539      -10.98676861847462
C            7.41953552572715        0.15259098622157      -10.81093121171869
C            8.20711010997403       -0.84481140398659       -8.66818231758255
C            5.36632403437618        2.87190080194953       -6.70362659209341
C            5.53268772911074        2.82327627990411       -5.18367914376392
C            3.07834036225744        5.45236451722239       -2.56842716044497
C            1.11569350153144        1.10114439165541        1.72508185513524
C            1.06692360943161        0.25723422860470        0.43528193928204
C            0.46084828466345       -1.12300594437512        0.73569805404057
C           -1.66019989322035       -0.35196503700749       -0.02590707738182
C           -1.03789661339033        0.99642921503853       -0.36884995757395
C           -0.04512662335522        4.55934145858985        4.40636558704756
C           -0.63794990271689        3.86463280764869        5.62798496777970
C           -1.93687429952574        3.17319633590224        5.21991655935613
C           -3.15084144267271       -2.88291887137918        3.27139238771429
C           -3.25220172204388       -4.10354953288274        2.55424994974916
C           -2.51852138014068       -4.31833357657557        1.39208586367208
C           -1.72429899124748       -3.29597581900741        0.92085053126110
C           -1.63082747120557       -2.07652547759942        1.60661380489994
C           -2.31049528909629       -1.88197555087911        2.79075134192708
F            4.57833266344434        4.94721401729675       -4.89086252184954
H           -9.29341239384723       -3.64937304020332        4.48772463964694
H           -9.39600029703307       -3.85510660316519        2.73146605060928
H           -9.47525253642441       -5.26812409818371        3.79968057477540
H           -7.04791524119346       -3.44726653332833        3.43611972287851
H           -6.22023621291641       -4.93314360403057        0.71780021888923
H           -7.99242732838868       -5.14120050693036        0.66705560416489
H           -7.28094715902714       -3.62153922875863        1.28303165151146
H           -8.12917772282941       -6.56680232603276        7.45487247554067
H           -5.76952912032658       -6.32078392016146        8.26081892457089
H           -4.12772828550413       -5.20465803858587        6.74100824873658
H           -5.37096912423921       -6.57474233236283        3.21934986529009
H           -4.22607164364823       -6.48080916936872        1.87463325676474
H           -2.33191931069409       -6.85744497942201        3.51032808947244
H           -3.52530273647633       -7.06066555466459        4.80009125834402
H           -3.47276211608573       -8.20880646857676        3.46066651288545
H           -4.44673952917385       -2.54425362865004        6.42207346631603
H           -3.11917871209736       -1.61311918237236        5.71475187022136
H           -5.61909166936738        0.93791583223367        6.52750407179036
H           -5.41952610670887       -0.53726935485012        7.47223684112478
H           -4.00026187359811        0.32508332487551        6.87166335013490
H           -6.58940023397963       -1.66055378079186        4.09774335381682
H           -6.78866752491999       -2.02430629612623        5.81352359947573
H           -7.19334150468092       -0.42209882249092        5.19196574273873
H           -5.38250331268893        0.86786280836486        3.98770538767065
H           -4.56000536398918       -0.52323563245314        3.25701820698720
H           -0.98757055795492        1.41295616999094        4.38737832581534
H           -1.68339528554671        3.50500406804514        2.46800146700848
H            0.49479417442225        2.94938305238368        0.78820564469090
H            3.34526131372251        2.28765988958296        0.94410869649425
H            4.60443023970261        3.17532715630551       -0.62331704886484
H            4.13469036434138        6.10127953118762        0.09881131063256
H            6.63123782003627        6.32887893083722       -0.17180189665739
H            6.66943038919368        4.72530335797564       -0.91425124490358
H            5.81993761979745        6.04914556991044       -1.71332217558145
H            5.70798563200990        5.54453303328395        1.93710534762612
H            4.25537410975333        4.55634602633150        2.01311578001015
H            5.76478538824515        3.87050819693079        1.38875685548082
H            2.90408089984304        2.10136013906177       -4.58765272219780
H            2.25132318569069        3.74711437786832       -4.57840667018543
H            3.01673377469483        4.13877400569422       -6.87168428950400
H            2.03412355048139        2.64836084696783       -6.83531296162981
H            6.99859759862069       -3.05447310890029       -8.29188812218524
H            5.31044271595087       -2.48456513820304       -8.32530881914862
H            5.82997952963151       -3.83660927677944       -9.34886118223456
H            5.73858396628961       -1.42658509474470      -11.89271856582673
H            5.12279459263683       -2.94415402044150      -11.25231928291210
H            4.52559572189120       -1.41125553390774      -10.58756314152061
H            6.56280316353649        0.50863060157701      -11.37590772605411
H            7.98528949042132        1.01908024548297      -10.48047857452769
H            8.04723971515277       -0.45995604468381      -11.45094126832428
H            8.90751257010261       -1.53234196202894       -9.13165716351780
H            8.69159472385142        0.11803911266772       -8.52829115817359
H            7.92410732429911       -1.21979321985195       -7.68973091733348
H            6.13821972600237        2.27298409209854       -7.18553877644735
H            5.44904777432181        3.90931266921409       -7.04515472859564
H            6.49204573981685        3.25860282388919       -4.90204557395031
H            5.50264440460294        1.79629180389659       -4.82133483488105
H            3.44784194147132        5.92345937355426       -3.47185674313320
H            2.04795623965276        5.12208513628265       -2.71547739104220
H            3.07007888050001        6.19067512735873       -1.77213446407481
H            1.93199076446457        0.73857768095650        2.34945957241224
H            0.17354227622259        0.96816926441289        2.25213289957710
H            2.07373442869543        0.13624546977751        0.02181452895839
H            0.97917234866523       -1.58128667097310        1.57948252463979
H            0.58869060796176       -1.76396325132815       -0.15468597522002
H           -1.64423080375411       -1.00879195454085       -0.91431754212117
H           -2.69940756588637       -0.19544613185833        0.27519817958117
H           -1.23581452499483        1.69326771087744        0.45382377307241
H           -1.46386695006866        1.39377792719828       -1.29075024999845
H            0.93420860943827        4.98853993875175        4.61313128398619
H           -0.72040407949975        5.35143296394746        4.06088656484335
H           -0.82726784683996        4.60146787611563        6.40604821732001
H            0.07141922195058        3.12944557585571        6.00830376359547
H           -2.67197846980315        3.91578319853115        4.90072890552282
H           -2.35424092770096        2.60569474312694        6.05027998341576
H           -2.58013875599688       -5.25224144437423        0.85359652201505
H           -1.17177203060315       -3.43121777110333        0.00177750204972
H           -2.18561274634419       -0.94548624994973        3.30706339142550
