151
 energy: -221.316394314697 gnorm: 0.004394086377 xtb: 6.7.1 (edcfbbe)
C           -8.26175556838026       -4.34801959093996        4.51988102311367
N           -6.38605206132629       -5.75833027344020        6.03080561783533
O           -7.26423692876479       -6.22328839647443        3.28299201194922
C           -7.01178989441472       -4.94622781564986        3.86939263843753
N           -3.49280712377946       -4.86867249027794        2.52749436774549
O           -3.27966804989218        0.82032008348507        3.22723746547436
C           -8.28139282700654       -6.24111683632147        2.30295473147265
N           -0.85273661617724        3.13354352840553        2.12199152438490
O            6.24809851652397        2.64405494963802       -8.30761272197708
C           -5.94491743572320       -5.17812520085209        4.92089418887152
N            0.26755947349030        3.75376832440467        2.68591918471077
O            4.84051895545294        2.33211037074729       -2.54740188946475
C           -5.54785495425917       -6.01508342753232        7.01607641429537
N            2.97305734729193        2.81676907256868        0.45907135089153
O            2.58167596090606        4.94640476477193       -0.13536065344902
C           -4.20002785320984       -5.69431451317714        6.96405325317778
N            4.72326773104195        4.49530405663691       -1.93852548717483
O            0.89370286831165        1.07248167962684       -1.30499309684440
C           -3.73329526448782       -5.08159806919686        5.81751847086785
N            4.41446895721813        3.15434956133624       -7.07163709617300
O            2.50035146337658        3.93597118571667        2.81331679280571
C           -4.60376844444983       -4.81558822182709        4.75687264871846
N            4.28695732863519       -1.94107174611963       -6.19473072195673
O           -3.52925063781355        2.40140928810895        1.65277146199124
C           -4.00161672997913       -4.14894743398108        3.58721777861827
N           -0.61036064107546       -0.82370925270902        0.10183286021313
C           -3.51028787924074       -6.30277717152823        2.37816890386903
C           -4.62706912939449       -6.78935058210061        1.45846320989046
C           -3.62722123869956       -2.82783265106152        3.48994334259274
C           -3.90186510235214       -1.73419239000317        4.47175637591735
C           -4.97248422874210       -0.69432552531102        4.06222024087628
C           -5.23530213546945        0.22265499604814        5.25987036098520
C           -6.26467731576799       -1.39268329273175        3.65028941377887
C           -4.50121323508143        0.15890355486516        2.87766349681921
C           -2.91107609751143        1.89543280699055        2.56322381643994
C           -1.62949845308700        2.45418825761595        3.15417231431090
C            1.50670339119832        3.48346162258840        2.25428009335122
C            1.62827481360460        2.64950263855414        0.97050893088292
C            3.35774162899704        4.00222729896963       -0.02758161471382
C            4.80168662595195        4.06416338618051       -0.53721276608711
C            5.68842955940526        4.92814527127531        0.36946817550331
C            7.11044827543900        5.00559145237019       -0.18230665143802
C            5.70624952849999        4.31597471766453        1.77031004577029
C            4.59645543834212        3.50679886745974       -2.83379001072853
C            4.17727328016679        3.80989981414767       -4.28578575295834
C            3.53980891230180        2.54937698670510       -4.88015568829744
C            3.22372469266570        2.75412409591748       -6.36118375819817
C            5.18783115907776        2.30416446946394       -7.77907789857509
C            4.72212512336417        0.94577676283525       -7.84157759978573
C            4.52435362289713       -0.24365357989067       -7.87187601579225
C            4.31493331383374       -1.67287028310499       -7.64578154416429
C            5.49408227623445       -1.53241012100848       -5.50000342384646
C            3.10977422208891       -1.42479970836460       -5.51946701895354
C            3.00302144671595       -2.12418991301626       -8.30108509723926
C            5.47642033716203       -2.44426336930308       -8.29354612778802
C            4.96218626670652        4.40859509191912       -6.60652019784059
C            5.36709817788639        4.27208024630802       -5.13401150161799
C            4.47025369257909        5.90004630079072       -2.18312440009776
C            1.29411635990568        1.17064958255229        1.13580728834084
C            1.44862102163410        0.39341028602637       -0.18856394404198
C            0.81827698872590       -1.00161269311457       -0.04310993448262
C           -1.16543490923467       -0.22358792928818       -1.09588174366483
C           -0.52303463681011        1.15060245926131       -1.27564766952525
C            0.02323903912132        4.69652313826557        3.76776827265600
C           -0.74803038646989        4.01206460721081        4.89229906507784
C           -2.01730249649438        3.38779425062397        4.31835863394338
C           -2.82854504288863       -2.72619602217690        2.31306897619749
C           -2.78513164828350       -4.01560946007473        1.72736370660383
C           -2.06923572201042       -4.25067852740580        0.55752007456159
C           -1.36327899449885       -3.20550542588124       -0.00147816676166
C           -1.34585629217620       -1.94130568971930        0.60435081179096
C           -2.07014499923069       -1.70282322369646        1.75265683030366
F            3.18911096961108        4.80537108353148       -4.30756031961952
H           -8.74082814917701       -5.11241309644252        5.12512161543560
H           -7.98188250812887       -3.52521291240814        5.17006603780931
H           -8.95425342575477       -3.97979813640913        3.76872316303064
H           -6.62411099100830       -4.27112745399674        3.08942108076018
H           -8.09308910095037       -5.49063939291361        1.52633667498626
H           -8.24841745215842       -7.23680264672347        1.86429414888508
H           -9.26805841842216       -6.07376537895189        2.74025797190475
H           -5.98530365696719       -6.48906891252142        7.88414630207961
H           -3.54396773386932       -5.91242796145352        7.79054681448488
H           -2.69376064713263       -4.80190706360384        5.72313140690742
H           -2.53843825267777       -6.60483346599786        1.97502697880523
H           -3.62813272175473       -6.75226779242561        3.36842336717425
H           -4.50553986004174       -7.85083646871884        1.26475993171679
H           -5.59067547590321       -6.63525069220365        1.93384180267959
H           -4.60205663182639       -6.25281038427591        0.51292779861898
H           -4.22683110349729       -2.18973801781747        5.40975290453398
H           -2.97032234715285       -1.19594604908781        4.65717989318853
H           -5.96209019020041        0.98886801115460        4.99984007746346
H           -5.62361358760738       -0.34997808533167        6.09724364197427
H           -4.31471773329843        0.70990489239850        5.57069591501188
H           -6.57932886508255       -2.06581774915609        4.44020077996152
H           -7.05469453832171       -0.66837328235861        3.47155237515397
H           -6.11207659759957       -1.96901570230799        2.74159609969497
H           -5.24819605440581        0.91483171290320        2.61573698211465
H           -4.31793088341277       -0.46541402931862        1.99873504335880
H           -1.02696536265873        1.62634798340484        3.54088407482102
H           -1.44525706240802        3.81810804166817        1.64892892437828
H            0.95470135591214        3.10571862788688        0.23584619813641
H            3.65579895865362        2.10983249800666        0.68418302495693
H            5.21525856202441        3.05161151651410       -0.56696185644570
H            5.25179078609167        5.92780315141200        0.44509928274569
H            7.12985804832316        5.40127039097228       -1.19344447066810
H            7.71780379965604        5.64516739934619        0.45228364309344
H            7.55510545582016        4.01326463104313       -0.19999140929403
H            6.10469990742576        3.30421977576044        1.73866780951136
H            6.33843457963492        4.91149834604572        2.42279114316925
H            4.70658587569496        4.28687843768127        2.19884065709441
H            4.23920628668178        1.72343980759788       -4.74633233762544
H            2.63102493326223        2.31965116661652       -4.32145993366054
H            2.47887812422826        3.54798316878804       -6.47031638750181
H            2.83079460824732        1.83496855989757       -6.79668898620817
H            6.35497753741962       -2.05732661244923       -5.90407010900293
H            5.68333843092182       -0.44870180447201       -5.55647623750164
H            5.39447471945500       -1.80317005763797       -4.45048665236647
H            2.22259652143225       -1.94539294017267       -5.86947033848543
H            3.21428139452019       -1.61751108950548       -4.45340116247136
H            2.97358844616244       -0.34253696961335       -5.65468540379306
H            3.10667866711478       -2.08353887919398       -9.38189557968595
H            2.79052630258677       -3.14664644816808       -8.00303915743732
H            2.17280836150714       -1.48319190058291       -8.01957758481317
H            6.43481494070240       -1.99083685647524       -8.05697684306195
H            5.46402102346549       -3.47063781129248       -7.94010282707317
H            5.36289649126315       -2.43498595521902       -9.37386943767410
H            5.83300713146977        4.64802678559883       -7.21870425014758
H            4.20546496645342        5.18896046886513       -6.71773285590950
H            5.75025970665405        5.22509421289435       -4.77177674141441
H            6.15433779551193        3.52221968773814       -5.03586031651115
H            5.18104693532830        6.48891783147461       -1.60977536026526
H            4.58834903983562        6.14374290881402       -3.23148121776810
H            3.45929271152486        6.15892256487440       -1.86335993325071
H            1.95187423253039        0.72167072712838        1.87999725880184
H            0.26246665838818        1.07690187468104        1.46886059546516
H            2.50682507336629        0.29839114807524       -0.45263529118768
H            1.20692042232620       -1.49375394194778        0.84930870804126
H            1.08448539640170       -1.60603429714774       -0.92899696686175
H           -0.97611094093186       -0.84120139776180       -1.99270855970230
H           -2.24248061254021       -0.10431437754757       -0.96802795156660
H           -0.85390928696577        1.81086119207165       -0.46500846641361
H           -0.80421426154991        1.58778046865321       -2.23494491362228
H            0.99360701204042        5.06097034211974        4.10410367047764
H           -0.55638836660252        5.53476322794788        3.36514833060642
H           -0.99724119777469        4.74302442163919        5.65995764040717
H           -0.12403558560479        3.23680525502768        5.33842812629824
H           -2.68381516155848        4.16786353876806        3.94192333883328
H           -2.54607454490908        2.81765204565849        5.08088830336998
H           -2.05535864315461       -5.22541829025090        0.09376124904416
H           -0.80408162596311       -3.36734652803044       -0.91099321836167
H           -2.00330941328071       -0.73019607354037        2.20755631794371
