151
 energy: -221.326064626192 gnorm: 0.008943422469 xtb: 6.7.1 (edcfbbe)
C           -8.18339698994421       -4.50838196841170        3.84604646642695
N           -6.25141664295910       -6.33265041320889        4.83537546493613
O           -7.10537746858041       -5.85481758817413        2.08702485577214
C           -6.90887863518208       -4.83795023648854        3.06861934758299
N           -3.86701007111777       -4.07867525022320        1.73901875337734
O           -2.91994505854158        0.79326364080654        4.67153731104219
C           -7.95037178618211       -5.50008887972957        1.01675517894604
N           -0.47760643432478        3.24536794687996        3.87828479002893
O            2.16695115118825       -1.81150714526387       -5.57116036503627
C           -5.84822288369775       -5.37876502287416        4.00672098740979
N            0.81426514868192        3.58301599979240        4.29777706620433
O            4.52717973319809        2.55916313659611       -1.66067419118086
C           -5.38637102941162       -6.86964940594816        5.67658117964202
N            2.58858516997585        3.82791543083610        1.11247739224924
O            1.68573411116704        5.76010278228981        0.39099666773947
C           -4.06124284869646       -6.46756679873628        5.76106220328994
N            3.13145470258565        4.30644862147903       -1.93106747801269
O            0.10139261778979        2.87666835045338       -0.48148362085999
C           -3.63550549356657       -5.46937702696393        4.90589797972056
N            3.01848812118286        0.28449924891320       -5.45023252488246
O            2.96652907341765        3.96154960817027        3.76852212454306
C           -4.52922879641501       -4.91017310554812        3.99056144350687
N            5.98914614002276       -1.97416866026646       -9.50986926092900
O           -3.19403211893651        2.81467671860712        3.73782709843162
C           -4.02424857298164       -3.86662681563102        3.09069278625306
N           -1.19786154808093        0.59657539168521        0.48247177071704
C           -4.07271961402212       -5.33217942126877        1.05671260167634
C           -2.81026271000313       -6.19323430645772        1.08994987130632
C           -3.53422012026895       -2.62899699207650        3.44322344608821
C           -3.54366606804728       -2.01846264844705        4.80757334873327
C           -4.60704749044161       -0.91778246499258        5.04120312886629
C           -4.68177740344752       -0.62391215871427        6.54190199802903
C           -5.97273395505434       -1.38442544288703        4.53867569678803
C           -4.24545927271561        0.37774942407606        4.30207270867717
C           -2.51051376865906        1.99256928509621        4.30670642209963
C           -1.06656023358112        2.22106989682583        4.72893643724825
C            1.82498663765113        3.67442479937063        3.42155410852024
C            1.47382715081784        3.44955554163401        1.94954460269252
C            2.56095493753526        4.90616460035206        0.32778001974079
C            3.66926935278253        4.94449289669120       -0.72638973576164
C            4.16680908155084        6.37079405985542       -1.00585017211601
C            5.21013269230284        6.36076456602750       -2.11975791135976
C            4.75565977823796        6.95534146610084        0.27677239985952
C            3.68700211060715        3.16125835009348       -2.33503518235094
C            3.28151030484578        2.53734929747460       -3.67960011118190
C            2.19211050245656        1.48208114125704       -3.47135668115162
C            1.84154323507207        0.82021444742993       -4.80371595595916
C            3.06247967190064       -1.00494929488182       -5.83014424992095
C            4.20875484642209       -1.40595261913965       -6.60864674305930
C            5.06446732426032       -1.87016745270569       -7.31807093577606
C            6.13258688896653       -2.45408472111044       -8.12829056281348
C            6.92860973025980       -2.54621124393416      -10.45403604884590
C            5.95749808757577       -0.53298876068294       -9.64501772549302
C            7.47898773319453       -2.09439100445151       -7.46616273212996
C            5.91730969022624       -3.97775107004000       -8.08025687928962
C            4.07412575472922        1.24331204159424       -5.67580547635581
C            4.49705817499408        1.89048027570358       -4.35470701171328
C            2.00038807664725        4.96189390562240       -2.55548025980039
C            1.07130387490791        2.00820755998404        1.62673313920116
C            0.83482581502723        1.81592877025473        0.11553414709658
C            0.11041001804919        0.48555206219608       -0.12645648239682
C           -1.97573476626057        1.62828825413007       -0.17965738635600
C           -1.23818334104140        2.95636953957671       -0.01755032563124
C            0.98253355592456        3.96555336612181        5.69332180196158
C            0.42947662596403        2.87570767402975        6.60538679755002
C           -1.02142709820460        2.58507060551899        6.22471083200229
C           -3.00977380023544       -2.05659868838141        2.24928241857998
C           -3.23275405722980       -2.99232446341866        1.20627856283968
C           -2.81085061149410       -2.73447625034537       -0.09409612133253
C           -2.15561633809677       -1.54867295453128       -0.34554805760955
C           -1.89730407131731       -0.63242166427566        0.68395713023031
C           -2.31141418003981       -0.88433140305804        1.97334071347195
F            2.81291454860937        3.51216362932488       -4.56497887077233
H           -7.93801335186398       -3.85664865506905        4.67879924102976
H           -8.90629557205748       -4.00422099073029        3.21164770822315
H           -8.60910197452200       -5.42902461200477        4.23339783914539
H           -6.53057228711278       -3.93063576635103        2.56911690902597
H           -7.93012783590304       -6.34153143679271        0.33215239693274
H           -8.97418563731939       -5.33150481324048        1.34979661557945
H           -7.58251045353983       -4.60357306517241        0.50872973169033
H           -5.78277027406955       -7.65107957650830        6.30998494025681
H           -3.38873896804340       -6.92426297873694        6.46819849437453
H           -2.61259530616889       -5.12135454963084        4.92181699073694
H           -4.89900255047633       -5.86466328424969        1.53117174865569
H           -4.35043015452232       -5.11629943180139        0.02219816517907
H           -1.97055812492655       -5.64891824076055        0.66392891795612
H           -2.56596110797149       -6.46393972620766        2.11421617942935
H           -2.96737723450392       -7.10199248371194        0.51775997515497
H           -3.72964069679303       -2.81060875974363        5.53498156230915
H           -2.56225617814454       -1.58768818549322        5.01247371754645
H           -5.40335335043338        0.16561457621920        6.73723317642405
H           -4.98986180331612       -1.51146190051119        7.08699446832261
H           -3.71074646778167       -0.30744548660621        6.91278781894413
H           -6.73158570277716       -0.63010927133200        4.73296283072458
H           -5.94335533885894       -1.57813606155460        3.46702269013968
H           -6.25322025814164       -2.30414209096707        5.04805641785177
H           -4.94864685437293        1.17832653170033        4.55378160338406
H           -4.26781045462428        0.22876571110397        3.21915900940591
H           -0.50887150900998        1.29158995304642        4.57518285391254
H           -1.08648797565883        4.06523743450656        3.85910553671556
H            0.66143584464033        4.13879776189532        1.69403193169916
H            3.37005240628047        3.19120168573537        1.06905708174127
H            4.51095276675017        4.32456680811582       -0.40235847081831
H            3.31285852040686        6.98510166152803       -1.30439631147365
H            4.78885613639150        5.98856110675484       -3.04977882176384
H            5.58221520062850        7.36668966007357       -2.28865583149742
H            6.04757690684240        5.72316603531704       -1.84331285006929
H            5.60117105306522        6.36366266584720        0.61579727215507
H            5.09108768112032        7.97183410854777        0.09963509928991
H            4.00898662937483        6.97429808862520        1.06589943569327
H            2.57855363271851        0.74275047546536       -2.76842962195974
H            1.29952482095591        1.93813567434893       -3.04163515469995
H            1.38578434569344        1.56426267622084       -5.46623146446280
H            1.14061704320850       -0.00325225489458       -4.64922114632675
H            6.92961504075611       -3.62814697499428      -10.37908901850740
H            6.59831005532629       -2.27534072353883      -11.45602272023693
H            7.95552445479854       -2.17421426467197      -10.32224000894541
H            6.94115123828038       -0.06075495056716       -9.49912318314994
H            5.61613425435477       -0.29408958473915      -10.65232403199960
H            5.25191228618930       -0.11319744479160       -8.93160884620500
H            8.29471385619498       -2.57569795263785       -7.99900889928630
H            7.63537380347150       -1.01871899236371       -7.47141148844721
H            7.48456680634688       -2.43883863803021       -6.43631798476393
H            6.81437730505416       -4.50762828058923       -8.38797191865043
H            5.67184940494314       -4.27797341673317       -7.06518477883923
H            5.09218066028758       -4.24722725284230       -8.73240645747684
H            4.92302046644891        0.73837994898488       -6.13627527398230
H            3.70834411793006        2.02348067987821       -6.35399116823856
H            5.24819838216443        2.65549650819762       -4.54788069772517
H            4.91702607386333        1.15400473837733       -3.67132791284115
H            1.26831998078145        4.23144229032675       -2.88822692879601
H            1.52176970303580        5.59258325639882       -1.81067835628471
H            2.31073472297932        5.57468641848007       -3.40147196112152
H            1.86439062710949        1.32780938323948        1.93588565282182
H            0.15579229144976        1.75794714064793        2.15800169492373
H            1.79153922985673        1.82477293095053       -0.41789666984309
H            0.65570514123693       -0.33152196967241        0.34724709286211
H            0.05829261734944        0.29816134456781       -1.21285153877738
H           -2.11663217649804        1.40793802471797       -1.25276585211013
H           -2.95297262400151        1.69834983386523        0.30006197413381
H           -1.26473245173309        3.24895697919769        1.03826748564052
H           -1.70400131518861        3.73979058409010       -0.61746148851832
H            2.04901223521507        4.12618111331480        5.85356782365625
H            0.44981255794517        4.90840680362899        5.86395490538783
H            0.49283500097850        3.20513271622987        7.64161668689906
H            1.02681237305218        1.96999363443847        6.49141535083722
H           -1.64206420301902        3.46708414987503        6.40447299161993
H           -1.41574154179334        1.75520015279898        6.81157294867971
H           -2.98025359408711       -3.44094247654122       -0.89252734326491
H           -1.81890713127795       -1.32826039561669       -1.34828963043956
H           -2.05613210702268       -0.17920529638588        2.74492672340492
