151
 energy: -221.328207805515 gnorm: 0.009418348822 xtb: 6.7.1 (edcfbbe)
C           -8.19337205445377       -4.29170666064986        3.74875440492468
N           -6.49257668986327       -6.25771803050461        4.80065457118983
O           -7.03727261481209       -5.48211488741924        1.93475635222854
C           -6.87044345426705       -4.62381332602286        3.06082537844546
N           -3.78755009685918       -4.36026773425656        1.77314375775230
O           -2.50664412759604        0.46762754947561        4.67797984174871
C           -7.64088134548988       -4.87561041830715        0.81435786015322
N           -0.16161907210845        2.96471892818528        3.66084443486621
O            1.20661832984475       -0.51915342941987       -6.58522430369805
C           -5.93630543177085       -5.35662834601716        4.00420697513410
N            1.17864112993688        3.27621526341765        3.91551907080277
O            3.79680378796420        2.56631620894943       -2.49922592613885
C           -5.72928575127711       -6.94830492590676        5.62847410731053
N            2.57116620392639        3.63387105664059        0.56783185213238
O            1.58810173065919        5.55155278981355       -0.10418034753146
C           -4.35802863842850       -6.76890587889848        5.72421593268842
N            3.13051417891164        4.71620493677194       -2.53242552464857
O           -0.24054344807890        2.72393117713563       -0.68755349067556
C           -3.76886541152970       -5.82637306825514        4.90029430001704
N            2.43298428542190        1.38995830979011       -6.65997977425226
O            3.26141881212297        3.61116737242913        3.13259818429684
C           -4.55727940638995       -5.10386474349667        4.00829083922762
N            6.59701381620906       -2.01367321854309       -6.61465824662692
O           -2.83541542048020        2.49610903656313        3.78218607044161
C           -3.92303915766931       -4.11990148802350        3.12242638793334
N           -1.20468684060080        0.30616180816179        0.35152826469651
C           -4.03089064847096       -5.62100395945604        1.11767498427490
C           -2.76739472145356       -6.47953287269025        1.08459631976400
C           -3.36980252780004       -2.90447896993922        3.45502167126235
C           -3.24152683702090       -2.33183369794007        4.83181544675740
C           -4.21101265714585       -1.19066603293722        5.21895975275127
C           -4.07930759881075       -0.94159383312599        6.72448264024821
C           -5.65206553456378       -1.57127258288870        4.88177054365934
C           -3.88232026295646        0.10759867189564        4.46985130179833
C           -2.10773626878589        1.65212935962186        4.25619971090317
C           -0.61204458992390        1.83606681006805        4.46486931880128
C            2.07517746105748        3.37482905948590        2.92082595726191
C            1.54129043047463        3.22648756357083        1.49438095924520
C            2.50086959583874        4.73759289635863       -0.18066849956070
C            3.65599597027026        4.88330945573236       -1.17792709058046
C            4.40630508231551        6.20893620289475       -0.97939069466255
C            5.59305452845686        6.29446985218533       -1.93648840070344
C            4.88241265170961        6.28782619770887        0.47087000586264
C            3.32271280372718        3.52821284557622       -3.11183127915299
C            2.98595266676653        3.31201659267063       -4.59718370531908
C            1.62053884010057        2.62645653410902       -4.72341333427879
C            1.35118029318035        2.21479997463833       -6.17286454531989
C            2.28678818567481        0.05293787983188       -6.75083975195774
C            3.47693853627608       -0.68386388372618       -7.08993583394376
C            4.36951253348687       -1.44311592672142       -7.37347243121371
C            5.56439568297309       -2.24239161240938       -7.64191031191970
C            6.89719665924989       -0.61337994611648       -6.37707864176770
C            6.35484976740975       -2.67533433621345       -5.34539522812326
C            5.15224565567109       -3.72064774809653       -7.69874206487930
C            6.13202532515496       -1.85872240808187       -9.01981416478247
C            3.70859978531069        2.06489388254834       -6.66302037453017
C            4.09016869270579        2.45996078062444       -5.23549747375811
C            2.30166032756353        5.79176823408045       -3.03698197966633
C            1.11010701339141        1.79667094256314        1.16124948650013
C            0.64130647812592        1.67918716931606       -0.30065561604187
C           -0.04540746530801        0.32347614337836       -0.51252756109575
C           -2.15135719509865        1.32668152276948       -0.06546336658462
C           -1.47590436498464        2.69514286879588        0.01159692488517
C            1.54757124711196        3.51671266522138        5.30184315912515
C            1.16880982363542        2.30544559602843        6.15016994666176
C           -0.31877504928656        2.01021198328357        5.96831802149474
C           -2.85494526050866       -2.36205977677182        2.23991499793163
C           -3.12160438528216       -3.30677413255211        1.21635267441333
C           -2.71411782620308       -3.08850200474892       -0.09505227584201
C           -2.06959570327133       -1.90687328799920       -0.39050117789613
C           -1.81381849686086       -0.95577411848089        0.60685411027701
C           -2.17915205226238       -1.19013849383557        1.91574514826700
F            2.95887460009445        4.51960452674040       -5.29875941602367
H           -8.79755263969158       -3.63640720132626        3.12424313415693
H           -8.73488523711334       -5.21361269809897        3.94536777625131
H           -7.99483664460660       -3.78873870017905        4.69213986286178
H           -6.38117749347342       -3.69563559560901        2.72259072125708
H           -8.68980283816352       -4.62910323632245        1.00131237924871
H           -7.10130664331666       -3.96593950446132        0.52427277908498
H           -7.58073189238505       -5.60925536231517        0.01345166990334
H           -6.24875571952508       -7.67383622287176        6.23874692589703
H           -3.77173281363034       -7.35593751640285        6.41241356631725
H           -2.70315298968920       -5.65211295429277        4.93181786445177
H           -4.82910674091189       -6.14198729371608        1.64889635403231
H           -4.37410780716438       -5.41982368444822        0.09981297382951
H           -2.41872901252101       -6.67556763529025        2.09762639028348
H           -2.97965592056610       -7.42600974074945        0.59733565583696
H           -1.97412001994653       -5.96861877450641        0.53913989977854
H           -3.39939968573564       -3.14240295716476        5.54586277008884
H           -2.22266193627038       -1.95820743613722        4.95743440974705
H           -4.73451005121119       -0.13099617984519        7.03528584787480
H           -4.35302030922870       -1.83489046554153        7.28082982162330
H           -3.05469677577567       -0.67582720329569        6.97539852479109
H           -5.91160411252289       -2.50837495825464        5.36767715049797
H           -6.34178883188157       -0.80117662127504        5.21856642115068
H           -5.77208843857989       -1.69386314950254        3.80800092076170
H           -4.51681816700573        0.92834710325622        4.82012649377154
H           -4.04381610918304       -0.01409736596807        3.39497146531674
H           -0.09865628885448        0.93791689848140        4.10573387470395
H           -0.75852155851942        3.76660205218536        3.84861828817487
H            0.70749809194042        3.92178417702547        1.35803396247734
H            3.37128879038969        3.02044113406073        0.49015515839828
H            4.36041508505948        4.05871899043843       -1.02597483038349
H            3.71821374520717        7.03837466796621       -1.16297413166446
H            5.26779159165761        6.26163877368774       -2.97250259788366
H            6.13653634283441        7.21950404181802       -1.77235576814341
H            6.27117476653581        5.46096688332384       -1.76502580666664
H            5.55268851935695        5.46327975721594        0.70243616664780
H            5.40941710933059        7.22222002195783        0.63847625520721
H            4.03878145930572        6.24202976259133        1.15751129763502
H            1.63604751537661        1.74274584861284       -4.08272413871197
H            0.83174397051411        3.29145374767244       -4.37046523629634
H            1.27715975957622        3.10391717864324       -6.80507302908233
H            0.42570711425927        1.64004626082668       -6.23800210914561
H            6.11225585368846       -0.10414913761268       -5.79457988155868
H            7.82987484820703       -0.55760311090401       -5.81632427380211
H            7.03441134572928       -0.08166204303512       -7.31483405076014
H            5.41220967205850       -2.36003271650701       -4.87048393926702
H            6.34704802887249       -3.75381814885774       -5.47442109477361
H            7.17486713557465       -2.42336966150342       -4.67529993666192
H            6.03858816747121       -4.34253529040462       -7.77903296288487
H            4.57873281404949       -4.00935314331111       -6.82260408238779
H            4.52678005047935       -3.88269461280623       -8.57330044971238
H            5.42287687666401       -2.12801331677028       -9.79694593571954
H            6.32561905848872       -0.79404765643404       -9.09833627370073
H            7.06059643395833       -2.39942660503198       -9.17530858746119
H            4.46765116455998        1.40901182057597       -7.08925929605903
H            3.62008607885255        2.96386658395736       -7.28008187692990
H            5.01776029521501        3.03282371781773       -5.24295558853644
H            4.23162212405003        1.57553380626050       -4.61389687466765
H            1.58758313185027        5.42866073221330       -3.76626670034124
H            1.74313600519471        6.20080826873966       -2.19801340499007
H            2.90971363003657        6.57219941521441       -3.48897688309384
H            1.95267702915259        1.12156429579772        1.30387706546641
H            0.29541824159419        1.49345977590483        1.80940232731225
H            1.49201534844277        1.78416840559642       -0.98397613578880
H            0.62450544664731       -0.48934766908690       -0.23419030534678
H           -0.30576522634359        0.22585269415316       -1.58060562752202
H           -2.50462426565744        1.14478934574677       -1.09657248727188
H           -3.00894428350950        1.31495529920472        0.60888201530632
H           -1.32941291341585        2.96660422699174        1.06454238393331
H           -2.09360226254533        3.45502428926449       -0.47030134175150
H            2.62103225055377        3.70562703238395        5.32126449345508
H            1.01674348812226        4.40817376100877        5.65349380449072
H            1.39016648903954        2.50765582691204        7.19768404537359
H            1.75878787299905        1.44511707206596        5.82981376043133
H           -0.91389539569761        2.83866113325978        6.36026409125836
H           -0.60003503480085        1.10003464628761        6.49615660055782
H           -2.90008227063566       -3.81504607586854       -0.87151199901890
H           -1.75155111437273       -1.70881697888116       -1.40278107712473
H           -1.92028780350184       -0.45750569308132        2.65870251051370
