151
 energy: -221.327312110425 gnorm: 0.007214641927 xtb: 6.7.1 (edcfbbe)
C           -7.57725501164096       -4.28898382020505        4.46817207269399
N           -5.78886703607197       -6.50406418350326        4.61789520013703
O           -7.24384559657355       -5.24276636284581        2.21582714291834
C           -6.60637444835728       -4.62677720611499        3.33830303503190
N           -4.05481723731539       -4.07652322740728        1.27702698244951
O           -1.97839262677759        0.28695617801678        4.36807627042325
C           -8.04768303173981       -6.37512435276935        2.49026827110035
N           -0.32443405560004        3.19981731188140        3.13134699940939
O            1.17633267263602       -0.82159248928039       -5.36701862135636
C           -5.45562558224392       -5.48309221808735        3.83904481307686
N            0.94650593911695        3.76743438048330        3.26897932260015
O            3.75341125252317        3.09681652384773       -2.50485986629843
C           -4.84638390182927       -7.30711755509658        5.08237385175989
N            2.18066763237654        4.11266954869350       -0.14442019760155
O            1.35091470965997        6.19124385741397       -0.45502132051786
C           -3.50060875547040       -7.12634472826814        4.81214135981993
N            2.91902033075368        5.13575197103103       -2.94849605286720
O           -0.73029870576557        3.12019803398320       -1.18899017710646
C           -3.14037194789421       -6.06633531674940        3.99833553702532
N            2.36161510188676        0.93961439774829       -6.16918381391011
O            2.90786250266780        4.37023727009311        2.35821635609340
C           -4.12273119882000       -5.22422562946388        3.48033929315224
N            6.04822625721489       -3.28915125089165       -6.16798785009418
O           -2.86458433832870        2.21935860379144        3.66071370034316
C           -3.71842615750632       -4.11202286858609        2.61261043259777
N           -1.65530660611294        0.71337744000192       -0.08934816015833
C           -4.62695601232208       -5.15885324897529        0.51641449350339
C           -3.53498066778740       -6.01604462440674       -0.12195586106982
C           -2.95791219885485       -3.01152701165107        2.94217831001528
C           -2.36169554159138       -2.67330716905434        4.27111895269588
C           -3.17119878699578       -1.68701263120124        5.14314813282095
C           -2.46479231896669       -1.54046448082710        6.49413315832827
C           -4.58959810468647       -2.21091759179042        5.36029106224625
C           -3.28020870459623       -0.31054910664202        4.47697425589494
C           -1.90829436647415        1.53904288714375        3.96005536520896
C           -0.47565659498400        2.03746940390060        4.00208855713977
C            1.76553946953667        3.94435203264513        2.22078431301886
C            1.19320068082477        3.68588993377511        0.82012283442150
C            2.21258415288030        5.34384248629648       -0.66061792043067
C            3.38084440959212        5.56987896974478       -1.62832032438317
C            3.90190030756257        7.01212473777234       -1.57817448856418
C            4.99346164669843        7.24608712151715       -2.61857685434228
C            4.45739300232805        7.26226108204937       -0.17485498339240
C            3.20492321721871        3.87856803669326       -3.29033525610605
C            2.87625010419792        3.34713316649634       -4.69136774351760
C            1.52306116032954        2.62437030636696       -4.65214384538732
C            1.27107449626316        1.86305976122980       -5.95526289585590
C            2.25118256065230       -0.32292667636288       -5.70588828637746
C            3.47254745841852       -1.07610563539485       -5.60760089317624
C            4.39420795030725       -1.80164813242358       -5.33438010727585
C            5.52040101865201       -2.65254468045256       -4.95527171904750
C            6.48782418724879       -2.34946243060694       -7.18017344924871
C            7.05306992961115       -4.30665672707731       -5.94248393263339
C            6.53755026451051       -1.77606239733870       -4.19271157194581
C            4.93988908174763       -3.70934446676946       -3.99982346847955
C            3.62568265226579        1.60643730192265       -6.37907132931652
C            4.00853955656489        2.41246189232601       -5.13737566402429
C            2.00099698075561        6.01546016587008       -3.64064391119726
C            0.78811414010349        2.23832329175376        0.54897882871842
C            0.17888402825979        2.08134219632226       -0.85776937600132
C           -0.50931793249033        0.71291363360173       -0.97621473814306
C           -2.60848059742868        1.72876852969560       -0.50623926744973
C           -1.91831471653695        3.08655376687372       -0.41208439078251
C            1.35724682243326        4.14497904764065        4.61533574593642
C            1.26898183663376        2.93915731299158        5.54581230278337
C           -0.13889024753467        2.35696094358294        5.47374762796149
C           -2.81568048400080       -2.25330992912991        1.74348889611060
C           -3.51191535704463       -2.95254883130691        0.72626263222825
C           -3.56943439578567       -2.46732761181387       -0.57625058755675
C           -2.94994350562208       -1.26881285305967       -0.84855890161400
C           -2.25560096867693       -0.56441855114880        0.14698037591474
C           -2.16519778330167       -1.06129024700261        1.42881751011192
F            2.80784892810302        4.38701021080928       -5.62470391284270
H           -7.88748022859840       -5.19618491059466        4.97723034680766
H           -7.08618017853126       -3.63616891238101        5.18202049132510
H           -8.44634146162690       -3.77986146904861        4.06017153527947
H           -6.20025485292669       -3.70462016562884        2.90598018114341
H           -8.23986953765800       -6.83578640559832        1.52294629529835
H           -7.52858292293795       -7.08174031316018        3.14250407275599
H           -8.99629984438591       -6.08495000032639        2.94801300778990
H           -5.19704140700969       -8.12301534404841        5.69968963304789
H           -2.76092363207180       -7.79641637873950        5.21901260049842
H           -2.10515221080206       -5.89118920602670        3.74488744705967
H           -5.24624969696583       -5.76481713033366        1.17771347183749
H           -5.27564051658798       -4.73282310588890       -0.25221616554219
H           -2.90010756734637       -6.44958865148724        0.64765694798204
H           -3.98226767967309       -6.81892697693602       -0.69966719363896
H           -2.91540471078353       -5.41098672268039       -0.77997041843957
H           -2.24138192526914       -3.59232861860442        4.84801411054952
H           -1.37362136439383       -2.24160051099193        4.10380367201259
H           -2.97966452186776       -0.81113251407102        7.11398770950306
H           -2.45700917220523       -2.49264754026462        7.01703096561964
H           -1.43896388439254       -1.21318173727487        6.35143595376271
H           -5.13270579012105       -1.56764895494335        6.04762263318826
H           -5.12932755512801       -2.24387506619066        4.41792785866123
H           -4.55654547803504       -3.21472298964033        5.77534533990670
H           -3.91282623495963        0.35640326174035        5.07158875628375
H           -3.71206921161166       -0.38820002968722        3.47557498936466
H            0.19248615947915        1.25044104688929        3.63838818232437
H           -1.05124027046799        3.88255188752134        3.35229331462532
H            0.33224536886321        4.35188763010456        0.69410466375520
H            2.94812588036477        3.48262658363471       -0.33804172549908
H            4.20037072056679        4.89743010531178       -1.35636512077039
H            3.06951071654842        7.70048485789087       -1.74478928927470
H            5.38795905781279        8.25326873800784       -2.51222368518954
H            5.80684399692497        6.53955881637825       -2.47324229910669
H            4.61748113720596        7.13300036383812       -3.63053666425530
H            3.69216236690737        7.09279671643624        0.57862093515356
H            5.28945941067699        6.59255634399855        0.03012926948441
H            4.80538298106939        8.28719822248922       -0.09089540292193
H            1.55214187033476        1.91453077160222       -3.82234943173766
H            0.71886171747803        3.33557157778306       -4.46475059573509
H            1.21821588666422        2.55534536955763       -6.79853640483234
H            0.34293144880352        1.29377171003336       -5.88493096460420
H            7.43011548581107       -1.84335874199139       -6.92461674799224
H            6.63820739566070       -2.89666607744668       -8.10929009114289
H            5.71441295378389       -1.60174497130550       -7.34043396916957
H            6.67032465519909       -5.07187698501517       -5.27374506142899
H            7.27112711690965       -4.77545708375742       -6.90126360785581
H            7.99572945465208       -3.90912989425752       -5.53607244297158
H            6.90640266080203       -0.96982574639287       -4.82130176930507
H            6.05886478444614       -1.33871114726159       -3.32053311393243
H            7.37536437726834       -2.38419111037756       -3.86166602421922
H            4.30413050552032       -3.21870596727303       -3.26677526525346
H            4.33798583502042       -4.41996249348728       -4.55869051134769
H            5.73159962831581       -4.23242628708152       -3.47255015207651
H            4.39793734710636        0.86803599262189       -6.59428242035265
H            3.51361358007656        2.27468707031351       -7.23750762028818
H            4.89344530995387        3.01635624341661       -5.34280504727293
H            4.23069990533438        1.74194113797852       -4.30592422635200
H            1.47569295136653        6.60989421778675       -2.89667752715437
H            2.52854268309890        6.67574543914619       -4.32648669128991
H            1.26656179306667        5.44949826766660       -4.19885222738235
H            1.66437960535145        1.59360662073429        0.61498337604345
H            0.04724577067577        1.92268758572237        1.27911922890594
H            0.96784784259512        2.17143441800973       -1.61246379123233
H            0.17842997853024       -0.07816245571858       -0.67146583920629
H           -0.79222970930915        0.54177325187695       -2.03236875774323
H           -2.96167340202297        1.56766007108952       -1.54031382051608
H           -3.46398275041221        1.70523122136717        0.17070039078638
H           -1.69912390564334        3.29987948439330        0.64076467523606
H           -2.55058290097205        3.87704692512007       -0.81949200769670
H            2.37435784889148        4.52990662228496        4.54390757030372
H            0.69259032220126        4.94390332385212        4.96433739457421
H            1.49898852553733        3.25033837685610        6.56435541172935
H            1.99896639390918        2.18922634128395        5.23783099805496
H           -0.86225493016472        3.08584620155693        5.84899343642160
H           -0.21864979232111        1.44907266203969        6.06928104752574
H           -4.09333579886238       -3.00143400587421       -1.35420615590680
H           -2.99123222810695       -0.86067712921576       -1.84814915892069
H           -1.59720707537574       -0.51411921960452        2.16225923926445
