151
 energy: -221.322543935113 gnorm: 0.007547631117 xtb: 6.7.1 (edcfbbe)
C           -9.43798999568538       -3.58097837316486        6.44728988627533
N           -7.49884985044454       -5.02737071101859        7.89344039588575
O           -8.63034138838456       -5.56042755070994        5.23309672430072
C           -8.27269857651187       -4.27595268232503        5.74342399976524
N           -5.34915725422072       -4.47632738323329        3.96538742767048
O           -3.70190106466444        1.03918777455334        4.53505103935178
C           -9.47331293223685       -5.53635132075531        4.10168965472661
N           -1.16825730255182        2.53952269286280        2.50134455829446
O            4.60175603926632        0.01322644208443       -9.44938719827577
C           -7.13942162838671       -4.52244199102750        6.72041361997605
N            0.16429935731329        2.91449042291043        2.70623738134175
O            3.98579843933601        0.49778879534770       -3.48789502193163
C           -6.57719401236976       -5.27800681157953        8.80419150370821
N            1.98608025246211        1.41092951840268       -0.07487939371734
O            2.10042867390975        3.55806751442163       -0.73598615735391
C           -5.22935048569570       -5.01328522951387        8.61036918727654
N            3.97660751597695        2.60427310777974       -2.69973367864742
O           -1.17517445042812        0.60315837251267       -1.11611738028105
C           -4.84548260346263       -4.48828395812790        7.39121825958418
N            4.73669140794128        1.65009974191369       -7.88442761403873
O            2.33636594343174        2.69013591787407        2.19900493544986
C           -5.80410080483506       -4.24760302944698        6.40432837962744
N            9.26732170595602        2.72810199178361      -10.51773731449414
O           -3.89675145370024        2.14230575148899        2.59430628051855
C           -5.32658948031041       -3.72281843703096        5.11921539813740
N           -2.44265158673345       -1.08224950869785        0.71804165232190
C           -5.74706036847927       -5.85815266555287        3.86844000271911
C           -4.59262055750420       -6.79368888453563        4.22463733137246
C           -4.67120696782227       -2.53162331962785        4.90033285851112
C           -4.46492570044277       -1.42570247892072        5.88437337608375
C           -5.41181233394979       -0.21117073896114        5.72421789728389
C           -5.26354323178425        0.68638183076440        6.95607648238062
C           -6.86054430808771       -0.68037371209337        5.59870021809939
C           -5.06832302313861        0.60408984526486        4.47139877819940
C           -3.23755738220897        1.76813659536422        3.53873676278689
C           -1.77358112613764        2.11107477550889        3.75922560436747
C            1.16356459100335        2.42401857532567        1.95696224734263
C            0.78579487749638        1.60689949055669        0.71034551092613
C            2.59460852507983        2.43964241538859       -0.68171152078959
C            3.93209237751668        2.07890591035833       -1.33837411404676
C            5.12147549270203        2.54191498851439       -0.47000747970329
C            6.42820072646833        2.40226601252177       -1.24863063780431
C            5.17498532171243        1.70976669922446        0.80920077287158
C            3.95309452085268        1.71193131855309       -3.69445404187197
C            3.97297259004763        2.16887113602685       -5.16138697464446
C            3.22346693960857        1.15530547721156       -6.03110525051594
C            3.34701831320457        1.53584026717112       -7.50477110340997
C            5.25758711931213        0.85961764830893       -8.83770207732722
C            6.64897454698562        1.08369438959061       -9.13948568337137
C            7.78212781571357        1.20090715759431       -9.52813176300142
C            9.18147215909854        1.39493038593340       -9.90445384845782
C            8.51473781100148        2.84034627937438      -11.75203184584042
C           10.60634134689516        3.25748108830550      -10.67864102360668
C            9.99425643785531        1.33899300743792       -8.60213297456215
C            9.60707173117253        0.23129934180566      -10.82198538975248
C            5.47957411898389        2.62673699790791       -7.12470285966699
C            5.42800358125113        2.29051842180456       -5.63169476319330
C            3.92412899669181        4.04260876888329       -2.86482019288755
C            0.11229498304767        0.26373308031296        0.96349099128385
C           -0.43393388496600       -0.33403201255849       -0.34909719367837
C           -1.30637987890365       -1.55936920953992       -0.03871926255534
C           -3.25043464911080       -0.18524272416859       -0.08613292130557
C           -2.38779169834447        1.00580103804812       -0.49691567953912
C            0.40960268416646        3.94504478721453        3.70715649495445
C           -0.19465464583268        3.54102672143089        5.04799022119017
C           -1.66763622026401        3.18964071490074        4.85377352712769
C           -4.23239132997799       -2.56291816991328        3.54535774782273
C           -4.67128688731342       -3.79398727900443        2.99499223675026
C           -4.39320052875538       -4.13272290688654        1.67363520031514
C           -3.66758729787304       -3.24482227719104        0.90897887315776
C           -3.19431477308139       -2.04107700660309        1.45352316378623
C           -3.46328341630798       -1.70723921508917        2.76364773496211
F            3.33710623328839        3.40067585966542       -5.33763609125482
H           -9.81367845986384       -4.23370923085288        7.22863865134080
H           -9.09157341128982       -2.65436545325196        6.89481734590062
H          -10.23407237837966       -3.35293763385466        5.74531708236430
H           -7.90925334321615       -3.65266668934513        4.90992066602808
H           -9.56625768432268       -6.57226949885455        3.78279863301215
H          -10.46467617268536       -5.13933188198987        4.33951034994609
H           -9.02749816907552       -4.93886156058957        3.29673256267104
H           -6.94075191495814       -5.71090507795753        9.72520750937894
H           -4.50768116210960       -5.22110828631896        9.38357596216088
H           -3.80781629241731       -4.27512206565611        7.17906473479898
H           -6.58918672543402       -6.03825766937514        4.53997295984885
H           -6.07616253171352       -6.04442934933157        2.84305018765726
H           -3.73701922557799       -6.60295975076978        3.58012761550008
H           -4.29286590786731       -6.64273964434595        5.25853876531852
H           -4.90372442783956       -7.82665080010821        4.10114379550616
H           -4.61557116011473       -1.82486479364314        6.88918379640999
H           -3.43784318253358       -1.06523702806032        5.80777066166556
H           -4.22904247705949        0.99720831900269        7.07450237265480
H           -5.88356420508702        1.57405840976166        6.85507788088591
H           -5.57268524224946        0.15279503528081        7.85101952817345
H           -7.00195787682524       -1.24482848741963        4.68139291150137
H           -7.11360606823456       -1.32170784826063        6.43789701989683
H           -7.53977904596232        0.16729228057534        5.59062332806921
H           -5.71175204247313        1.48666911593781        4.39449012192580
H           -5.20109224857055        0.00767680106091        3.56451641748337
H           -1.24840366720446        1.20931724872108        4.09272224830456
H           -1.70818388680984        3.31558210704189        2.11364611715553
H            0.11871264171413        2.24748054200856        0.11885550847557
H            2.48495635989589        0.54299506357748        0.05004444887014
H            3.99107861941655        0.99197947527224       -1.45077374166240
H            4.97108511514896        3.58821611272292       -0.18442329164021
H            6.47461475266611        3.10838134885983       -2.07297019530757
H            7.27007686981107        2.59108779767823       -0.58875402817553
H            6.51904201284971        1.39502567001839       -1.65083928816075
H            4.27143993420702        1.85015672002108        1.39692185500761
H            5.29562792511643        0.65447180204800        0.57354346138010
H            6.01860721871275        2.02510196580556        1.41591107806433
H            3.64562575694271        0.16833779681124       -5.84564061057387
H            2.17266027693187        1.14087040407386       -5.73942603608050
H            2.85340400354936        2.49902620103373       -7.67485764409175
H            2.88300397128470        0.77627431525716       -8.13680716846347
H            9.03187516954716        2.39544526964040      -12.61575717587433
H            7.54498026853924        2.35995622473222      -11.63622766813664
H            8.35298925953978        3.89777585020859      -11.96076098022747
H           11.24740151847347        2.64568042245546      -11.33282077900729
H           10.51806148585921        4.24704396204211      -11.12469335172897
H           11.08432881869830        3.36677120068770       -9.70835335405164
H            9.71339118340536        0.44807197957912       -8.04189752933470
H           11.05726366524890        1.28868080174050       -8.81676944576276
H            9.78288205655631        2.21628872538329       -7.99373320437599
H            8.95775669715147        0.16706484160975      -11.69158174818712
H           10.63320534160209        0.37320667336706      -11.15244812104168
H            9.54071522910644       -0.70721546807080      -10.27812023038374
H            6.51240332801403        2.64366463034791       -7.47160459932226
H            5.02902525697153        3.61171546555542       -7.28581046346967
H            5.94276349901457        3.06778309168633       -5.06754100892511
H            5.91542881327548        1.33478578308948       -5.43904859989249
H            4.15037290143933        4.50507762085141       -1.91046381710938
H            4.64346114281823        4.37803283224199       -3.60835685455281
H            2.92434833494738        4.36551037238698       -3.15853387174705
H            0.82701227553420       -0.43599479896436        1.39564595754367
H           -0.71903858224189        0.39215727456242        1.65258716777005
H            0.39071287464306       -0.61444486213464       -1.01219607963318
H           -0.74897522547827       -2.27573216098568        0.56761754822021
H           -1.59400900112260       -2.04134860000492       -0.99202835561386
H           -3.64923613087648       -0.69042234734193       -0.98645792609873
H           -4.08689366979967        0.17745870698596        0.51348786735084
H           -2.18154266683704        1.61340968565535        0.39090021256018
H           -2.90147805265243        1.61530823579376       -1.24163791553957
H            1.48908104229061        4.07771823906769        3.77349266793576
H           -0.04376797388519        4.87793742531571        3.35230902865304
H           -0.09029021292562        4.36558620828508        5.75181138791752
H            0.34218629583593        2.67780301947632        5.44224159298799
H           -2.22654863264564        4.07404179724897        4.53796385688018
H           -2.10275854637427        2.81645702628997        5.77989255141341
H           -4.73514015711566       -5.06470516505254        1.24733443975578
H           -3.45339280518191       -3.48113341549765       -0.12432772888011
H           -3.04941944558864       -0.79365781368352        3.15448708974964
