151
 energy: -221.320124822084 gnorm: 0.009995923308 xtb: 6.7.1 (edcfbbe)
C           -9.25306366990708       -4.17815483741343        3.62974803289954
N           -8.35579959823320       -4.56812670978011        6.25787865752190
O           -7.88372512811545       -6.20814989849996        3.84158691883458
C           -7.87827589140530       -4.78209778191829        3.91333902187707
N           -4.55244947580704       -4.85939227218773        3.82817371766176
O           -3.60987396232639        0.81424419037653        3.52087729961607
C           -8.02534154947707       -6.73542706956547        2.53854648579210
N           -0.69918164510548        2.56678045243610        2.41045705198656
O            2.89057943185057        1.28900391646886       -8.25366029142715
C           -7.42403330991581       -4.44962547119862        5.32253082874238
N            0.41710754420935        3.14770352655519        3.01481475651862
O            5.17752737147898        2.70188736687592       -2.56332274300475
C           -8.05083453715964       -4.31950595010015        7.51824090671412
N            2.75580189813910        2.32154865415908        0.52715620319323
O            1.69192268655748        4.28035464725568        0.28833605249123
C           -6.78295983670617       -3.93723038721984        7.92859452409738
N            3.63504727653476        4.27147310805886       -2.08631246860715
O            1.54033432846110       -0.56917373717852       -0.05806139480239
C           -5.80546808566729       -3.80969959361747        6.95946182479562
N            4.12513992518133        2.84882490181376       -7.15880282337838
O            2.65149427447503        3.37738975884394        3.06605047745972
C           -6.10854353428490       -4.06440440021977        5.61967506529484
N            6.87423969612793       -1.18249010126096      -10.30672420359871
O           -3.07996025192041        1.65951558207880        1.51196526734243
C           -5.05371655098577       -3.85390518152271        4.62303384510923
N           -0.55743811115504       -2.08099622768194        1.21859741567026
C           -4.73135538360600       -6.27087835919264        4.06558237185120
C           -3.70017467544176       -6.79207832951275        5.06663803217263
C           -4.39599256114751       -2.66867120527620        4.36985310734857
C           -4.69468256004679       -1.35006048708413        5.00643863402515
C           -5.58836885082803       -0.40018549209434        4.17276762053633
C           -6.06350787464922        0.74294489769062        5.07461966565700
C           -6.79647387381358       -1.14626163873854        3.60886981012545
C           -4.79278102987710        0.18911094187048        3.00192641244138
C           -2.84050385979000        1.48494966435917        2.68703678616190
C           -1.61264977050238        2.02362668556453        3.40241663265270
C            1.65087346088819        2.86429606259208        2.57721288350813
C            1.75286155892026        1.82819000331544        1.45160865073422
C            2.67830573665396        3.58254249137735        0.08747780229637
C            3.91055051280824        4.08920301605690       -0.66413599437378
C            4.41892933735909        5.38337778714819        0.00623379022433
C            5.47834776978586        6.06403824699722       -0.85509168504422
C            4.99131412303938        5.03549466094645        1.37945424650283
C            4.38010095739231        3.56084512696308       -2.94263722715757
C            4.27090374055003        3.82964854190369       -4.45935732461782
C            2.97056491373072        3.28737237203242       -5.05855578179544
C            2.96660860877120        3.48593827125799       -6.57664402970871
C            3.98871841645399        1.73832991851290       -7.90560713334400
C            5.20964392190653        1.08754262405593       -8.30590417872706
C            6.09892556411960        0.38057345659328       -8.70869778870132
C            7.26070733158695       -0.39623126158070       -9.12967653146853
C            7.88776748499878       -2.08893389772927      -10.80386821104157
C            6.31676429949498       -0.39822571473363      -11.39015706236130
C            8.42758818331280        0.58732270092511       -9.36483210667472
C            7.60326491332960       -1.33517348100184       -7.95897351171876
C            5.37900425453907        3.37796436774519       -6.68172951480084
C            5.48213632805803        3.21320613692511       -5.16480864267321
C            2.53284293237739        5.14788156347075       -2.42813896261773
C            2.13570463535074        0.46625021248434        2.03723329050008
C            1.43211663018221       -0.71607645687493        1.35426443277979
C           -0.02697685772131       -0.86885859377804        1.79742598366114
C           -0.08323390250114       -2.39758534700680       -0.11245844796762
C            0.45341977160646       -1.12984857257767       -0.77289460274026
C            0.17437009319242        4.16794149701063        4.02435873072324
C           -0.73910169331490        3.60529343426858        5.11113420860645
C           -2.01276505394368        3.05685341305976        4.47021900451351
C           -3.40740852976024       -2.95716615099843        3.38092597913090
C           -3.53675554106035       -4.33190048121815        3.07077105291472
C           -2.72126130055843       -4.92306776827577        2.11337980108252
C           -1.76900575702804       -4.14927268073010        1.49199143024140
C           -1.58306198567286       -2.78734285319880        1.81709107005797
C           -2.41124303076282       -2.19851989421781        2.76437607244146
F            4.33310080062488        5.21791446919888       -4.67398705664965
H           -9.56093073433927       -4.38913677497910        2.60956207102181
H           -9.97336301840353       -4.60216030816015        4.32242718522678
H           -9.21295030857093       -3.10289315865818        3.76766288844505
H           -7.14236548394347       -4.39442844702392        3.18911648334142
H           -7.30074344933606       -6.27722679745850        1.85328783357842
H           -7.82574727221005       -7.80091583501707        2.62816386913923
H           -9.03841759513635       -6.59064712067544        2.14786322713231
H           -8.86496312909467       -4.43248429114634        8.22134652888253
H           -6.56750348185864       -3.74787481227181        8.96768316421548
H           -4.79840773255980       -3.52412279611757        7.22788097324128
H           -5.73955481476099       -6.44054086562772        4.44714242463733
H           -4.62744509999926       -6.79579243352899        3.11258440510393
H           -3.82969810910513       -6.29794476991200        6.02683017673225
H           -3.82262045242343       -7.86197511394383        5.20545917210033
H           -2.69280102605850       -6.59395442728022        4.70841589057542
H           -5.20944088803356       -1.52814095788860        5.95160842803626
H           -3.75780522705296       -0.83261266099393        5.22161025415679
H           -6.66275630447588        1.45062795622491        4.50594568263104
H           -6.67113199799873        0.35411869614457        5.88721327519813
H           -5.21192782373854        1.26982222979989        5.49731812584355
H           -6.47869330650105       -1.92907414512133        2.92444921427532
H           -7.35644490310134       -1.60509043701450        4.41982584259463
H           -7.45127080318194       -0.46375280634999        3.07277866859034
H           -5.37742867478691        0.94041380850174        2.46056606625869
H           -4.49431908909185       -0.59084558532912        2.29570737174672
H           -1.10659353739799        1.18509939112189        3.89508325918662
H           -1.18449830879357        3.24233823368793        1.81697622668083
H            0.78997888754705        1.77664745329949        0.93549804633812
H            3.58232821073320        1.76585728787819        0.36945314435395
H            4.70209756533850        3.33627184380662       -0.61196069080246
H            3.56873571676427        6.05744566675570        0.15232670569782
H            5.87914637555300        6.92669997198434       -0.33005625099495
H            6.29392067411135        5.37290405056202       -1.05916285572836
H            5.06815761950747        6.39947789720641       -1.80418674998777
H            4.24300300526855        4.55184966608534        2.00358921828950
H            5.84276984127611        4.36697479991870        1.27573771190931
H            5.32204782074709        5.93985063089705        1.88251061368125
H            2.91556272746798        2.22416202259564       -4.81984938358500
H            2.10636300314360        3.79052475430288       -4.63041039269701
H            2.99492099202045        4.55522611103604       -6.81007893187268
H            2.07452624998897        3.03878366117171       -7.01966681733470
H            8.75053054507153       -1.57409847472332      -11.25351823376426
H            8.23420735265457       -2.74012057186085      -10.00734516079534
H            7.42905755620485       -2.70867925324344      -11.57347877803467
H            5.56859128570844        0.28839070356613      -10.99888082656473
H            7.07466789742158        0.17546208150919      -11.94542278945116
H            5.82810601580868       -1.07868482861674      -12.08709162527010
H            8.64915367127232        1.11731012197114       -8.44275598655676
H            9.31562868768225        0.04296172034028       -9.67518598401185
H            8.16733756015092        1.31452232126766      -10.13006168720754
H            8.59942405033728       -1.75092702510659       -8.07767678282636
H            7.57188684449819       -0.78074408787573       -7.02457489153890
H            6.87467735127163       -2.13974314246285       -7.91265443158771
H            6.20276984934206        2.86043812064090       -7.17290545591502
H            5.42284797678577        4.44369137849442       -6.93257700684810
H            6.38734506808936        3.69850747988247       -4.79832853861478
H            5.52926865625154        2.15913327116308       -4.89247408751672
H            2.40399014701887        5.86788843316866       -1.62523810213499
H            2.71802059768328        5.68857446734924       -3.35005394911368
H            1.60600651463898        4.57534051295710       -2.50553319329949
H            3.21465415983443        0.34026131453874        1.94798941630386
H            1.88990953370158        0.44123919981947        3.09909731991359
H            1.96396039932168       -1.63795610824952        1.64684120089495
H           -0.60145135316835        0.02587901209488        1.51136189684834
H           -0.05174381930684       -0.96687259909234        2.88519915979554
H            0.71999966066810       -3.15017786244179       -0.08313190285809
H           -0.90444761761352       -2.79132359789905       -0.71656916337186
H           -0.35728078328673       -0.39269709898938       -0.86470368242662
H            0.83951254263194       -1.35127597451411       -1.76984669912822
H            1.14648259380171        4.46086274587092        4.42119707664501
H           -0.29034838603466        5.03564160233901        3.54123228055959
H           -0.98066838632348        4.39195743151408        5.82402699650243
H           -0.21959318317997        2.80512057020928        5.64027816753527
H           -2.57013160454149        3.86726864365133        3.99514242773689
H           -2.65019754393248        2.58214676873907        5.21428232546867
H           -2.81489379606783       -5.96991668679243        1.86369215573584
H           -1.12359028439347       -4.60395308805517        0.75767978872031
H           -2.28608736125226       -1.16156947376888        3.02740453262276
