151
 energy: -221.318169167194 gnorm: 0.004908871493 xtb: 6.7.1 (edcfbbe)
C           -9.44981173321843       -3.70935991453200        6.24190959334955
N           -7.52944358044859       -5.16730526531463        7.63017384481587
O           -8.40269019478094       -5.26771239954514        4.66729899974178
C           -8.17414730127505       -4.15199886411180        5.52816600107026
N           -5.28583338457336       -4.37997164117997        3.84522189674626
O           -3.71570210098144        1.13693956979308        4.84867278544127
C           -8.92986308988514       -4.92954741838918        3.40491159939364
N           -1.33394343292476        2.86438705048923        2.81087083340461
O            5.14586430866911       -0.57522310978785       -9.52007462684633
C           -7.10952396706915       -4.56981706265007        6.52559072800753
N            0.00917832251339        3.23785900311789        2.92013011623293
O            3.56056045272695        0.12663787269945       -3.47276943739550
C           -6.64755701222640       -5.53590293894463        8.54265343906635
N            1.72607618259047        1.72744426091480        0.04308891183313
O            1.79694067473800        3.56282732366981       -1.26134513709781
C           -5.28688553970021       -5.30324780510419        8.42048249711557
N            3.74729491614925        2.29007333593077       -2.86959552058147
O           -1.59129373168089        1.25160054090872       -1.02660096310917
C           -4.83716699904200       -4.68722303334967        7.26624052746363
N            5.14237152072743        0.92687987543828       -7.81975811782297
O            2.12156975919380        3.18895795692197        2.18873531198254
C           -5.75119465662663       -4.32374883383476        6.27935529761071
N            9.45704366217731        2.11961688195103      -11.11892179324408
O           -4.02757962268628        2.50013157883465        3.09577685799198
C           -5.26269638986671       -3.70111959595432        5.04329035167451
N           -2.77026879797857       -0.59471497284330        0.70874164372631
C           -5.52582810921155       -5.79393567133942        3.69304231412238
C           -4.24497981040159       -6.59505904773371        3.92129519585077
C           -4.70136410482966       -2.45474174264618        4.88231496548789
C           -4.44662184983641       -1.44617778354948        5.95736108661709
C           -5.38240286182866       -0.21498220216802        5.99730998186383
C           -5.15123048181176        0.52046874818437        7.31973615282825
C           -6.84412048271471       -0.64803859101865        5.89359927952576
C           -5.09635417540412        0.74596254167522        4.83548440640560
C           -3.30826160880667        1.98382107331854        3.92125293181717
C           -1.81699824366913        2.25669716832366        4.04831087299888
C            0.94766574665734        2.85918906317081        2.03772284281282
C            0.53210533109132        2.07357627552936        0.78558676155578
C            2.28986105787591        2.50726601196439       -0.88760928948238
C            3.57993331519272        1.90947703779941       -1.46994715184768
C            4.83780982816365        2.25972421899799       -0.64099713711999
C            6.06911698197504        1.65119844309008       -1.31303120264027
C            4.72408943580453        1.74660832258573        0.79198721818042
C            3.72145018842878        1.31044859393423       -3.78091381060658
C            3.99874326560121        1.62325940889189       -5.26359198924287
C            3.36872321944946        0.55377890453443       -6.15833930246037
C            3.71297602228403        0.82254743789130       -7.61958898175484
C            5.73311844178330        0.25883671795304       -8.82769923871070
C            7.10465718836215        0.60686807567603       -9.10023766184397
C            8.19640758992981        0.88304336897403       -9.52708900822573
C            9.55016347737732        1.23364296037120       -9.94874819123154
C            8.50878033305611        3.20628779371180      -10.98665232510654
C           10.72850076571261        2.61699238725110      -11.60393710659505
C           10.27710632933088        1.85333711302484       -8.73689632448089
C           10.23780578194790       -0.08171773086951      -10.35616074841831
C            5.80533698766052        1.90994290942098       -6.99632116279191
C            5.51129583521295        1.66132043812314       -5.51426802140254
C            3.88822181779526        3.70079205640669       -3.17022127631436
C           -0.27184948831022        0.79496180179993        1.00277520402920
C           -0.81335640775464        0.27812508780156       -0.34169834731240
C           -1.65154950311872       -0.98625158103877       -0.11978795973847
C           -3.62431366006538        0.33040043780122       -0.01008741904906
C           -2.80590774125500        1.57310027228685       -0.36635508271957
C            0.34413589227311        4.12305248381963        4.02994011873891
C           -0.08066377682782        3.48130795260218        5.34724304177680
C           -1.56805837127702        3.14181715909123        5.28336069007993
C           -4.33754487744351       -2.36204484618992        3.50663641969634
C           -4.71078083879584       -3.58530899294462        2.89371206886304
C           -4.45877769264442       -3.82618976643924        1.54729554177028
C           -3.83728740292266       -2.83968992115745        0.81267974947825
C           -3.44576272125923       -1.63276140855812        1.40890427443598
C           -3.67960267992502       -1.39918149360098        2.74747500781909
F            3.44603016681287        2.85163058600405       -5.63854632005429
H           -9.22834954874150       -2.87893764966510        6.90454305460069
H          -10.19923269804086       -3.39508655435013        5.52084604768413
H           -9.83519088460297       -4.53866894945628        6.82653145276323
H           -7.77492855173946       -3.32316938172891        4.92283511719341
H           -8.97757706735347       -5.85935063652737        2.84300957768956
H           -9.93135708224666       -4.50256146269869        3.48407204211929
H           -8.27539210779509       -4.22042947783086        2.88725614502408
H           -7.06021290450939       -6.02973721496054        9.41142842648052
H           -4.60293816923002       -5.59940366060716        9.19892795403419
H           -3.78546631608423       -4.49250211846195        7.11477700242806
H           -6.29585399511919       -6.10038577807025        4.40344014521644
H           -5.90319728716438       -5.96899576371881        2.68348164628956
H           -3.88625144281149       -6.44928275931024        4.93738911735662
H           -4.43723676741984       -7.65238843990183        3.76778560908939
H           -3.47005644966415       -6.27258389263464        3.22953092079386
H           -4.53780961266974       -1.95206593017325        6.92044874926017
H           -3.42162333451286       -1.08303023674167        5.85812652502364
H           -4.10895744749409        0.81343799217647        7.41078858245090
H           -5.76869685362164        1.41395746251746        7.37161528407525
H           -5.40738567976236       -0.12182519246499        8.15784305931273
H           -7.07381534221095       -1.37028246084641        6.67239731577043
H           -7.50674551338425        0.20672675592342        6.00438647017261
H           -7.03565886375216       -1.10667867771385        4.92691173898179
H           -5.71447355998250        1.64492416250461        4.91538587290246
H           -5.31353551889988        0.26863950421367        3.87569209619057
H           -1.29453861259379        1.30322904276206        4.17984118960837
H           -1.91522385703187        3.67119670939906        2.57771452682358
H           -0.04209547850948        2.76764484523688        0.15700901472776
H            2.22553396938682        0.91090031115827        0.36221370186568
H            3.46936370047428        0.81949201913435       -1.48156720713391
H            4.94796567588376        3.34694229908258       -0.60204738737198
H            6.25964883756032        2.10839376069001       -2.27963087743111
H            6.94347228044135        1.79832912348742       -0.68567656764144
H            5.92427416266420        0.58330967276211       -1.46339401470223
H            3.91632210110841        2.24018309562993        1.32535495496277
H            4.56955083127218        0.67015854782399        0.80390182518111
H            5.64814864739765        1.96041892071289        1.32252315136921
H            3.73637502016099       -0.41993347128576       -5.83822104647353
H            2.28594658240406        0.56936276245189       -6.03126834502966
H            3.24512818672918        1.76430847124604       -7.93288220322437
H            3.34603452732655        0.01516592152266       -8.25534301783950
H            8.41526420119016        3.69276610237973      -11.95658949149797
H            7.53557564202102        2.81132055967810      -10.70330181175965
H            8.81365499510589        3.96604826521280      -10.25014501643795
H           11.15549486648682        3.40328691889191      -10.96580974217349
H           11.44210990655605        1.80486189683159      -11.69513351486372
H           10.56486184304690        3.03698426406979      -12.59435413319107
H            9.78940775728896        2.77471542745320       -8.42698715888991
H           10.25905608334230        1.15426128780599       -7.90543118166994
H           11.31158267118722        2.06560986547270       -8.99143054803108
H           10.04582080897183       -0.84237883654285       -9.60379806724421
H            9.83724188616083       -0.42066532869261      -11.30714951625812
H           11.31213418143074        0.05013982436732      -10.44413382988120
H            6.87986692981992        1.85367086625214       -7.17511339226214
H            5.44881949509072        2.91094827664376       -7.26829853156636
H            5.97714681905264        2.45170991763950       -4.92694337116704
H            5.91943806560653        0.70102372243498       -5.19834838017204
H            3.96934983529553        4.24543594352842       -2.23617256701524
H            4.77310123643099        3.88867803093733       -3.77558502799978
H            3.00845757484459        4.07611020687241       -3.69175072537016
H            0.36310700376294        0.02746838064778        1.44537711130268
H           -1.11350339280539        0.98027523066410        1.66298679258795
H            0.01234037330585        0.07206081553994       -1.03107148620473
H           -1.06879223621511       -1.74723110467020        0.39856056979611
H           -1.96372536616059       -1.37738979289744       -1.10383487442779
H           -4.02776658762545       -0.12702563144074       -0.93306036084624
H           -4.45720550136230        0.62592321172161        0.63015286586456
H           -2.60569415097689        2.14407100689319        0.54771336908970
H           -3.35229210571491        2.20327897018927       -1.06986010821482
H            1.41878580972694        4.29781886412356        3.99413631988723
H           -0.17992647180289        5.07426154872413        3.88399031330424
H            0.11922208868788        4.16871759739795        6.16798758488998
H            0.49913182463401        2.57150271085599        5.50755310259250
H           -2.15654674777774        4.05830461968890        5.19514571798771
H           -1.88451023452592        2.61159849286436        6.18043914853575
H           -4.73778346634230       -4.75852049499163        1.08024716500611
H           -3.63377033742927       -3.00105233123586       -0.23577023441079
H           -3.31413525036467       -0.48387544434284        3.17825865189822
