151
 energy: -221.323140654403 gnorm: 0.004666931697 xtb: 6.7.1 (edcfbbe)
C           -9.27601837929720       -2.85101541081360        6.10757832496805
N           -7.95357159994146       -4.95171312914789        7.37030204984657
O           -8.83634885831485       -4.60962630222564        4.45714463999478
C           -8.23385152787229       -3.66574172168742        5.34291529458110
N           -5.53411780350720       -4.54961012553246        3.62406973959390
O           -2.99824395827216        0.41990370095032        5.01400655588229
C           -9.26246313686831       -4.05853075029207        3.23053995573841
N           -0.84326656364828        2.29721238267139        2.85674221099523
O            4.58300740111398        0.04631467558314       -9.60236873208718
C           -7.35442998881881       -4.44821356074364        6.30224009333101
N            0.50771659404392        2.65967580998997        2.85957784773002
O            3.55416504302243        0.91957013997611       -3.95297341802114
C           -7.24154037212538       -5.62569197961955        8.25600731043860
N            1.79403493876653        1.69847236901548       -0.42863192609643
O            1.73731335139475        3.91119805220798       -0.83862725699100
C           -5.87571678937439       -5.82801992262011        8.13564896599545
N            3.24758877025709        3.04109596235787       -3.25393740595659
O           -1.49483068526364        0.98750496079686       -1.02947792080438
C           -5.24152763626400       -5.31315570731329        7.01935462415540
N            4.34902883682568        1.90320226453577       -8.31803705286281
O            2.53275099251241        2.63301545425021        1.90962574215796
C           -5.98136560155447       -4.61536902014918        6.06688309727014
N            9.74955670085017        1.20791174976153       -8.29173114639299
O           -3.50674173508673        1.97798222603940        3.48287215378957
C           -5.30913573735108       -4.05300618625241        4.89002916569211
N           -2.51489185544689       -0.91150647911489        0.76712194844591
C           -6.18405234208522       -5.80054523987556        3.32065502550749
C           -5.19502073660290       -6.96434695172429        3.36813779515415
C           -4.43209317357754       -2.99325264351641        4.84329041664835
C           -3.84668485373220       -2.24114497882617        5.99708377168316
C           -4.51419178533602       -0.89942649200900        6.37326354266207
C           -3.82491969657380       -0.35135869835676        7.62558429031103
C           -6.00252741134419       -1.09722711490458        6.65430510684652
C           -4.38275748058730        0.12169137835135        5.23609792712053
C           -2.69667018077556        1.34634343454281        4.12396569597947
C           -1.19359658892116        1.55926822816455        4.06670729052099
C            1.33848662443042        2.36202887714967        1.84838628290394
C            0.74381590607106        1.74975756859425        0.57002013627995
C            2.26511658082556        2.81721805286073       -0.99715084911874
C            3.50445262944499        2.61545186282365       -1.87975313567681
C            4.71942423547898        3.34250033972718       -1.26090405565950
C            5.87495394963369        3.42942294436558       -2.25601727463576
C            5.16417047527842        2.59125823703555       -0.00800046305213
C            3.33817416003795        2.10817177099856       -4.20758872896819
C            3.32511465221859        2.50065466878698       -5.69640237325590
C            2.75417513206184        1.36446594290855       -6.54844212820233
C            2.95281914814777        1.65763918064901       -8.03591315241247
C            5.06834894925999        1.03921399397404       -9.05494771298039
C            6.47154612458524        1.34660341218036       -9.17252331951294
C            7.65768283819241        1.46834803829865       -9.33782670223279
C            9.08773462285744        1.72488516709119       -9.49902333866833
C           11.14173831755441        1.57665086884741       -8.13917406661079
C            9.57636376684125       -0.21969292168641       -8.10567117495092
C            9.55196083390110        1.07122391665082      -10.81612094788138
C            9.25279603854242        3.25020052603257       -9.59491275941243
C            4.89803826477510        3.02777818864780       -7.60052862181484
C            4.77740008776212        2.80292953335009       -6.09181211816037
C            2.89911527863181        4.43067272594885       -3.47396138506205
C            0.11127301294715        0.37265872562858        0.74111435216606
C           -0.67072929750019       -0.04924476127980       -0.51878260862361
C           -1.52237732170127       -1.29229459440642       -0.21756958716066
C           -3.40167968977125        0.10059658298610        0.21759261016342
C           -2.57461282643964        1.32292690309681       -0.17147790341060
C            0.98435786964963        3.40627388214998        4.01704990676235
C            0.71301981241754        2.61187543850515        5.28983008578064
C           -0.77563618156888        2.28590352999601        5.36116497486990
C           -4.10241545339658       -2.81626961325122        3.46669749981120
C           -4.79612363108141       -3.81566218368979        2.73932526016423
C           -4.67683558732758       -3.91385218033341        1.35673534416396
C           -3.90597400171880       -2.97837341259067        0.70100978898048
C           -3.23567748511218       -1.96726811332850        1.40476309197988
C           -3.30476813403517       -1.90512935604128        2.78020982376285
F            2.54798089568411        3.63269146963924       -5.95903438996059
H           -9.88913139638352       -2.27407081092336        5.42102159503725
H           -9.90547607925324       -3.52814924053290        6.67533565407100
H           -8.77715775385298       -2.17084278513369        6.79100181053810
H           -7.59406486329417       -2.99725806861204        4.74512996034302
H           -9.67172205454197       -4.88664387825311        2.65675019401424
H          -10.03566938324184       -3.29761013048837        3.37140147019823
H           -8.41733603177578       -3.61258787572183        2.69030973256308
H           -7.79792427827525       -6.00853821480167        9.10072358095217
H           -5.32908437897156       -6.37167290912752        8.88883718550516
H           -4.18036802691330       -5.45040293175301        6.87052400966506
H           -6.99187529253150       -5.96137404398847        4.03758139973639
H           -6.62268814332928       -5.72464976696612        2.32321328172016
H           -4.77374947527782       -7.06158606877069        4.36594108541458
H           -5.70221232061049       -7.88979095086590        3.11244666668234
H           -4.38364473190682       -6.79975075401801        2.66270261464498
H           -3.88624911973607       -2.87995377540915        6.88153601842454
H           -2.79882271033728       -2.03820192129484        5.76816196549984
H           -4.24069840655618        0.61652518932647        7.89397122749407
H           -3.96898725803636       -1.03107176100259        8.46088349128778
H           -2.75869744264502       -0.23464097502524        7.45210892403862
H           -6.44051507019229       -0.18547551164446        7.05232305458509
H           -6.52786621489641       -1.36133737941301        5.74172480622017
H           -6.14498612059594       -1.89555993059463        7.37815364386589
H           -4.90151092987082        1.05177594398674        5.48979522296369
H           -4.81143832245718       -0.26627018147377        4.30737859486751
H           -0.69539260397928        0.58467963292791        4.02576139149435
H           -1.44024876620954        3.12293644916001        2.78050659942544
H           -0.00541224853398        2.46129197651882        0.20183667362963
H            2.33415074475428        0.84848426887516       -0.48721888579504
H            3.73298686318317        1.54794382592210       -1.94798602461138
H            4.41083272871614        4.35109544698315       -0.96828020535547
H            5.64550459520946        4.10541994947713       -3.07363153994685
H            6.76269071317450        3.79831214758842       -1.74995664396045
H            6.09316230495360        2.44574958281024       -2.66688573363821
H            5.46557277413798        1.57741370133147       -0.26188166202401
H            6.01201149048539        3.09818296602826        0.44490403128434
H            4.36302687457574        2.55162782502760        0.72492398568164
H            3.25812727831142        0.44051375076579       -6.26629779462555
H            1.69041590806496        1.25879274202762       -6.33262288256101
H            2.37726547028354        2.54559568378728       -8.31595745233822
H            2.62756214709161        0.80808802406362       -8.63901323174883
H           11.48335350395044        1.18661125158695       -7.18133665215037
H           11.79292271931428        1.16471516520021       -8.92469611573971
H           11.24457659537886        2.65767748095763       -8.11897518726715
H            8.53967626278801       -0.49240249855297       -8.29531412727956
H           10.22693657746200       -0.82202907132000       -8.75802773101965
H            9.81427015218696       -0.46367124614554       -7.07054084196756
H            9.31697124378032        0.00970697565662      -10.82597501597345
H            9.04438862710817        1.54097085370557      -11.65409768537631
H           10.62437459435943        1.20105117527804      -10.93945457207295
H           10.25089238797002        3.50735221193478       -9.93282704850634
H            8.53575528275581        3.64251810881873      -10.31150933654080
H            9.06522444823802        3.70425278881796       -8.62697135394182
H            5.94491626018593        3.15673853023135       -7.87470764320462
H            4.33420144362775        3.92437203516279       -7.87886325451747
H            5.12593379112963        3.69037197215440       -5.56381173250271
H            5.38747365987987        1.95114493825563       -5.78830740624918
H            3.61068857495214        4.92122643357058       -4.13706423381919
H            1.90041926327172        4.51587366970467       -3.90098496583336
H            2.89052967442450        4.93455928149840       -2.51321377519651
H            0.88484082343564       -0.37009434700241        0.93495057599933
H           -0.58228099654629        0.39156534945418        1.57803975762475
H            0.02078757433880       -0.25804946787277       -1.34159472298460
H           -0.90094498922431       -2.08738932049688        0.19501467488973
H           -1.97314337574286       -1.64212095782563       -1.16289544920855
H           -3.94997102920698       -0.27738530741789       -0.66439126645201
H           -4.12365904093909        0.39155855841859        0.98320009758838
H           -2.20671236440289        1.80608478920383        0.74016556140612
H           -3.18044689259350        2.03015955748714       -0.73963061543328
H            2.04900186598157        3.58487040982577        3.86984694811483
H            0.45926002964278        4.36720022458577        4.04732849618985
H            1.01677162942955        3.19645298229527        6.15685201589900
H            1.29473993924873        1.68954487072192        5.27021173081888
H           -1.35452225148527        3.20794910208263        5.45751832157381
H           -0.99389357522762        1.64858785359317        6.21682287860070
H           -5.18584181257125       -4.68673554298883        0.80128124193667
H           -3.82215114706314       -3.01869476126727       -0.37533539521952
H           -2.74753666626262       -1.14060887697009        3.29280992840907
