151
 energy: -221.326164820097 gnorm: 0.008225161268 xtb: 6.7.1 (edcfbbe)
C           -8.62667098382839       -3.42756017319258        3.64140240258686
N           -7.35438242807162       -5.39930863650332        5.20561264088269
O           -7.56151714083198       -5.12928110401571        2.23060033670694
C           -7.32933500517768       -4.08746702657025        3.17943285181516
N           -4.13893521798022       -4.27710825117363        2.27990100607524
O           -2.75462545672390        0.82383406599062        4.59923279877396
C           -7.87768038757976       -4.67785370015336        0.93113297357460
N           -0.34456433617597        3.21836570928034        3.73070802917098
O            3.85919933551913       -2.71240712503848       -6.18621665258140
C           -6.60223654560537       -4.72914990133780        4.34620535722510
N            0.93879121955606        3.61282010680599        4.11403897401855
O            4.11259028648223        1.13534610370358       -1.69917122484230
C           -6.78706076453604       -5.98611947172123        6.24462198879521
N            2.80858735608673        3.16365390598687        1.01367480353216
O            2.03462348407558        4.96695553186891       -0.09511571090469
C           -5.42562220774334       -5.93081458862485        6.49839229797139
N            3.16625297220808        3.12093401241508       -2.18260713564129
O            0.53902290869790        1.97172571987617       -0.55983468428686
C           -4.63093351148637       -5.23278860840374        5.60744273233916
N            2.92459589184552       -0.67298581225728       -5.84143001469397
O            3.12628682339114        3.76775202446249        3.60845790946671
C           -5.21181955273679       -4.62030862562579        4.49771959737452
N            7.31659540024676        0.57522618512278       -8.71982509347595
O           -3.08739493705122        2.88507230690105        3.77887992258690
C           -4.36012349231697       -3.86200976808842        3.57625310537771
N           -0.96956654550597       -0.07624419757352        0.60139468838098
C           -4.48185565100616       -5.57186502682498        1.74579481178121
C           -3.43276260147877       -6.62209561005619        2.10720893045791
C           -3.68408836269697       -2.69004301424253        3.82864542468075
C           -3.62606988187362       -1.93413726104329        5.11788791951956
C           -4.54887509299755       -0.69795890373351        5.22849527697502
C           -4.50372904523283       -0.18303063649308        6.66955420826233
C           -5.98430414028583       -1.07119982507822        4.86189435752253
C           -4.09879066840716        0.42373782552572        4.28594413778902
C           -2.37899753659314        2.04674384382837        4.29386160194665
C           -0.93960144991224        2.30834143311907        4.70668860565405
C            1.98447169823134        3.46780351088566        3.28216446813683
C            1.65400481597460        2.99116390533807        1.86674465993003
C            2.83129482842782        4.04110243720103        0.00585956439080
C            3.88553911546159        3.73220095262842       -1.06150705203828
C            4.72052264259767        4.95093832324488       -1.47579056698578
C            5.79208637245280        4.52754450900437       -2.47704702608458
C            5.36144775847270        5.55175041951708       -0.22620256009280
C            3.34930249294708        1.81299622674422       -2.39176685118985
C            2.69023794410809        1.12517472427423       -3.60542115599976
C            2.72493493401039       -0.39608601798205       -3.42740690940195
C            2.18377083579225       -1.09533137610413       -4.67509914649702
C            3.76047846761055       -1.51770998040324       -6.47532153490565
C            4.54012033793896       -0.94130869540985       -7.53840390699220
C            5.24411248802813       -0.61465260782476       -8.46111425391139
C            6.20720223866608       -0.08955800807924       -9.42708253918922
C            6.92346402955620        1.76640306133260       -7.98659852899303
C            8.08135691598207       -0.31454200941178       -7.86241520061160
C            6.74492138026095       -1.25676505885527      -10.27085006513896
C            5.50825876193200        0.90500320588309      -10.36743148557513
C            2.86439481530348        0.74815428429003       -6.08393246434064
C            3.43737947509354        1.51320523082921       -4.88744629294101
C            2.17123366428387        3.93678547781882       -2.85061159772059
C            1.19887605130811        1.52832940139478        1.78595710461718
C            1.14314268018121        1.03784832128216        0.32383872491617
C            0.41272402329108       -0.30935813588874        0.25238156682112
C           -1.59327053222314        0.80119316436793       -0.37251670905309
C           -0.85357457710632        2.13710268418142       -0.33255833653302
C            1.08452679543662        4.20046486440077        5.43826392724475
C            0.51555082305403        3.25885446361885        6.49618955792887
C           -0.92241865366321        2.89206358612501        6.13228383917846
C           -3.00699246150615       -2.35800920762204        2.61889999999077
C           -3.31056011864485       -3.37364499388069        1.67778636110226
C           -2.81324764589554       -3.32772285533593        0.37900675567321
C           -2.04299712760203       -2.24411438887676        0.01727340858479
C           -1.73263777507381       -1.23519603079647        0.94090070969416
C           -2.17935500876125       -1.30405445952463        2.24251000168087
F            1.34851538675223        1.48865423389692       -3.73847716647319
H           -9.13426806330489       -2.95657228590653        2.80414944563953
H           -9.27028844034457       -4.18449117965130        4.07881886775152
H           -8.40647536847642       -2.67009013134793        4.38687890907838
H           -6.66977317795632       -3.33652442428392        2.71513974103199
H           -8.84245866702028       -4.16476427810868        0.90175427901480
H           -7.09763341895181       -4.00397623606655        0.55512762796705
H           -7.92447964068079       -5.57040244922844        0.31140452554691
H           -7.46305013849305       -6.51675959706530        6.90121105577677
H           -5.00340982686923       -6.41750444490919        7.36211027753353
H           -3.56305631930622       -5.15947427715922        5.74930703895507
H           -5.45734921983790       -5.87130123167315        2.13435994313347
H           -4.55533964276606       -5.47980344211542        0.66080113417647
H           -2.45479859572773       -6.32554658800509        1.73528776921603
H           -3.37450232872887       -6.74316742605563        3.18605688716162
H           -3.70403286644724       -7.57563308886579        1.66526601380556
H           -3.89912009949309       -2.61203630432399        5.92785365170416
H           -2.59889143467636       -1.60240165614525        5.27827627767378
H           -3.48025421350196        0.03760491457916        6.96234171751991
H           -5.09419692264838        0.72501878087624        6.76393579884799
H           -4.90774583912599       -0.92724834521532        7.34888497704671
H           -6.30535838326382       -1.92630971379270        5.45225970161440
H           -6.65672642711881       -0.24003389785235        5.05548769632008
H           -6.05348652173160       -1.33401986825849        3.80937092221223
H           -4.75039173007724        1.29800195892046        4.38099571070843
H           -4.11735838871060        0.08893889051942        3.24456170795174
H           -0.37596944088569        1.36935393730009        4.68567710639567
H           -0.95733431547607        4.02736087628291        3.61639996334165
H            0.88097276979750        3.65600186017886        1.46675937771116
H            3.55114123821018        2.48895646968038        1.11771152956043
H            4.56503680717798        2.96050123941332       -0.68554171468395
H            4.06802304155227        5.70250360117511       -1.92752415376566
H            6.35734730130183        5.39243938471995       -2.81042051201220
H            6.47777733118682        3.82168782882051       -2.01223809429025
H            5.34748333988894        4.04435621770067       -3.34471205326553
H            5.98072651300397        6.40271269501209       -0.49654550340782
H            4.59709277819504        5.88715999196540        0.47239524949278
H            5.98430063574776        4.81451210387402        0.27646898100028
H            3.75498101044891       -0.69378514133160       -3.23703156257834
H            2.12679573668796       -0.66827631186706       -2.55630713382343
H            1.13075838918136       -0.83505486912047       -4.81516012107851
H            2.28467784874235       -2.17656901289434       -4.57836988617537
H            6.16956869276648        1.56330967773227       -7.21074023099375
H            7.81030168892743        2.17201877202016       -7.50545925714797
H            6.54055730771304        2.51633245408237       -8.67246675295517
H            8.88933436729530        0.25880674637309       -7.41277381390740
H            7.47817672382767       -0.75853923361758       -7.05547198280997
H            8.52301977326402       -1.11270035172564       -8.45100209390706
H            7.01292911587309       -2.10685768078850       -9.65004229542543
H            5.97917712779141       -1.58472455454324      -10.96827861985323
H            7.61545305876421       -0.92352679081114      -10.82774505686015
H            4.82103990069554        0.36905587504915      -11.01573018458467
H            4.93893257946063        1.64793717726583       -9.81774720927404
H            6.25901478714624        1.39982975626179      -10.97547898047026
H            3.42558323325004        0.98378368959485       -6.98730755416332
H            1.81650140542848        1.03137521578809       -6.22346435453738
H            3.35450366561000        2.58197684252205       -5.07325011306714
H            4.48915751797286        1.25883886509451       -4.74489881596340
H            1.19146871842936        3.47680917605081       -2.78255569751295
H            2.11571549007058        4.89008818830897       -2.33981123851152
H            2.43001261575594        4.10165451569242       -3.89441089182675
H            1.90287242642798        0.89384055877496        2.32464324978821
H            0.21123925414595        1.42950344071283        2.22989436737326
H            2.15768088169873        0.91809518627713       -0.07202512511136
H            0.85127417745886       -1.01019312231974        0.96406049573356
H            0.52686026944593       -0.72101832014684       -0.76805399107730
H           -1.54834223465057        0.38826582479476       -1.39711861441889
H           -2.63692577423732        0.95247886665959       -0.09475181066689
H           -1.02716439128210        2.61463981037165        0.63992112495381
H           -1.19618008195598        2.80137950294381       -1.12745232787055
H            2.14722559839465        4.38791964064482        5.59127669033248
H            0.54435580309719        5.15378886602002        5.45268970983500
H            0.54713083674735        3.75147938584924        7.46520109083021
H            1.12478974231982        2.35559168107459        6.54418609131725
H           -1.55550023978074        3.78201971022202        6.15640252399561
H           -1.32244269868710        2.16386482285607        6.83566753452407
H           -3.02285940201154       -4.10869351938605       -0.33467150918449
H           -1.66448688671157       -2.17102625535208       -0.99249093851847
H           -1.88116096694652       -0.53822363951686        2.93811495806521
