151
 energy: -221.323807205688 gnorm: 0.004840281288 xtb: 6.7.1 (edcfbbe)
C           -9.37730844243642       -3.40906897992693        5.44674541443100
N           -7.82184926695621       -5.09620396857628        7.07116829930054
O           -8.48161915636394       -5.32612646591484        4.18714826531337
C           -8.14945198589928       -4.13061362598127        4.89038833339357
N           -4.92847882548931       -4.60089220635152        3.66156733685917
O           -3.40449220603295        0.90837899620821        4.47179708053691
C           -9.23186566026034       -5.12619126404687        3.00805908647920
N           -0.74939293400587        2.60767115841201        2.79118354146116
O            5.01568487352982       -1.33285998776909       -8.16228183443729
C           -7.22820447311569       -4.54889099275324        6.01950834685199
N            0.55329562635305        3.00154462795585        3.11211044801053
O            4.30880148483219        1.03634097823812       -3.02365809907656
C           -7.09207446896909       -5.49085125432396        8.09759850930350
N            2.31454254360273        1.97079999484042        0.13552574097497
O            1.73275619695492        4.07309068813735       -0.40261774214394
C           -5.71561192923412       -5.33562535415892        8.15224876866464
N            3.18487460830487        2.98123469851486       -2.85474676946770
O           -0.27769761368460        0.52173119526885       -0.90706735315121
C           -5.08776812413922       -4.76455964353207        7.06115187077037
N            4.08430914873171        0.63767746426819       -7.52864214592193
O            2.74681327171453        2.91847134021610        2.61069637946114
C           -5.84083864473179       -4.37365379649287        5.95308329652041
N            9.34798908768579        0.70700825158937      -10.08258396083329
O           -3.43737500693529        2.14474642368408        2.60271438378216
C           -5.11343779222919       -3.83733881394712        4.79349439783755
N           -1.58401514963257       -1.18235773103996        0.89719697326888
C           -5.41077537476056       -5.94408428589365        3.45655527542670
C           -4.44684484593294       -6.98447006223710        4.02316791554376
C           -4.40715225686570       -2.65964695872806        4.69718537378151
C           -4.31947426791881       -1.56833142491068        5.71640995219616
C           -5.22881501659487       -0.34002875322261        5.47247864815157
C           -5.18729767842255        0.56142304379096        6.70924947827963
C           -6.66429590685716       -0.78765840927665        5.20797386453322
C           -4.75437729480520        0.46974771024549        4.25915145819598
C           -2.86332709837573        1.71221854806211        3.57752752354638
C           -1.42935601378307        2.04836073206790        3.95296048281006
C            1.58679278067113        2.61920693728130        2.34862168490331
C            1.21855543197539        1.85521659178445        1.07038120136425
C            2.49267864533833        3.11784643433287       -0.52512342966453
C            3.67963191455418        3.13977377613941       -1.48792550109106
C            4.49618114518937        4.42722237585296       -1.27704563702578
C            5.53491564201961        4.61098877824700       -2.37830438461574
C            5.16492626507875        4.34320705496680        0.09456379297328
C            3.57061860056541        1.88990614473512       -3.52378910605732
C            3.21951193199336        1.71211411795193       -5.01184451541967
C            3.08333571430186        0.22385180136086       -5.34558532464936
C            2.96909684452641        0.01176533125754       -6.85609822171004
C            5.07063745552220       -0.10498921048398       -8.06093974449047
C            6.21449725298086        0.61986949190964       -8.55180627655152
C            7.26773689293261        1.04167695396381       -8.95767204422864
C            8.51637078115030        1.67933228469197       -9.35851113159037
C            9.34509157852111       -0.63210207993189       -9.53217787054638
C           10.70516852308771        1.14799241512810      -10.33395846590969
C            8.15381886959550        2.83594031024541      -10.30667269807255
C            9.15679419802891        2.23674269006430       -8.06821224952902
C            4.15905504791268        2.06266117587245       -7.32079983954056
C            4.34214098959911        2.36408992365345       -5.83152454794145
C            2.24349134779325        3.97376947676209       -3.33482491898215
C            0.83157054095187        0.39880980926127        1.30080049661225
C            0.45708589053911       -0.30685845529761       -0.01864798000350
C           -0.33868813807808       -1.58823401751597        0.27997530664409
C           -2.37224714414320       -0.40155461946649       -0.04217858464880
C           -1.57902387178354        0.83985143063148       -0.43885334710344
C            0.71338622099279        3.92036628454414        4.23073128070946
C            0.04646458304127        3.34806849028029        5.47806451613173
C           -1.40798847536009        3.00443191375695        5.15966956553036
C           -3.73250689263877       -2.70471135000651        3.44176408376999
C           -4.06835353627142       -3.93985370869296        2.83200489281331
C           -3.52871738286660       -4.30634722270406        1.60338521042780
C           -2.68652369880510       -3.41852316377624        0.96868355416291
C           -2.36522007120687       -2.18342187045673        1.54845621896763
C           -2.86061942979028       -1.83876775476752        2.78875897728519
F            2.01175908108501        2.31820869304976       -5.36507146540801
H           -9.97346716377494       -4.11504191901593        6.01686847793589
H           -9.05867795331197       -2.60663917560306        6.10447750367332
H           -9.97462748421339       -2.98483936260481        4.64470603915123
H           -7.60157091285634       -3.46534860964280        4.20293903879301
H           -8.77309822094097       -4.35406465780281        2.38062218424689
H           -9.22009353545316       -6.07915288905902        2.48369568362043
H          -10.26514201046590       -4.84783717412568        3.23000153533365
H           -7.64088887345303       -5.94616203882686        8.91083170377886
H           -5.15548911677008       -5.66027003695521        9.01377306297046
H           -4.01594566934101       -4.63010223565360        7.04434002045985
H           -6.38996201461309       -6.04717575025206        3.92997580728228
H           -5.53329603448440       -6.09453765144123        2.38164625732415
H           -4.81189302402501       -7.98211331177445        3.79878694990764
H           -3.45786480198985       -6.86319341419205        3.58725727858872
H           -4.36775868218924       -6.87832640160524        5.10262132211030
H           -4.58595522748501       -1.98579715843776        6.68952072945210
H           -3.28721649220110       -1.21694687583355        5.76478199578001
H           -5.43366407604405       -0.00530109535183        7.60400349383541
H           -4.19556842454846        0.99076242782883        6.83189851755918
H           -5.90541253649155        1.37360637400834        6.60923158451768
H           -6.71648295863824       -1.37135531658667        4.29271709191265
H           -7.01400244819020       -1.40322508595805        6.03187525339625
H           -7.32406091822423        0.06984476502840        5.10628675572693
H           -5.38744712547791        1.34991392109396        4.10699642548253
H           -4.78435663063351       -0.13369257193156        3.34702617005608
H           -0.91687818522960        1.11874877230945        4.22597957658639
H           -1.28878462054604        3.39353420485975        2.42491886791564
H            0.38194331230610        2.39904518331991        0.61957880658051
H            3.01682905479934        1.24812255951775        0.11651539927654
H            4.32485156539328        2.27602857083936       -1.30363916471206
H            3.80870994613551        5.27887794346179       -1.27291168274638
H            5.05986316402104        4.81617499547364       -3.33300365048101
H            6.18674008167293        5.44448286023799       -2.13262118727992
H            6.14068883781151        3.71274205591385       -2.47804577101143
H            5.67462153383161        5.27535707733691        0.32156697803575
H            4.42835490566212        4.15605838256822        0.87459572346278
H            5.89406142106773        3.53642312599789        0.11097357402348
H            3.95744226649709       -0.29396821530915       -4.95070026987309
H            2.19521827362981       -0.16765684430111       -4.84807365102882
H            2.03953634563465        0.45474657874667       -7.22541162775990
H            2.98409008096357       -1.05371922834565       -7.09054113715608
H            9.88853273982205       -1.28180399450657      -10.21678086618045
H            9.82372778918832       -0.70019605904831       -8.54202995183559
H            8.32353236116879       -0.99890650003293       -9.44787951701123
H           11.34243784077442        1.11647514412256       -9.43752569636282
H           11.14052684506317        0.48335748841799      -11.07997718442747
H           10.70552862113542        2.15604515127383      -10.73753625297391
H            9.01921988849146        3.46229734326288      -10.50038620569491
H            7.79058352306997        2.43212120572651      -11.24709097302582
H            7.37730229707213        3.45066413096347       -9.85954581864623
H            9.40661276623346        1.42560939790896       -7.38612880007431
H           10.05840524864509        2.79524964931648       -8.30530016064022
H            8.45542252422586        2.90083431445014       -7.56958968870144
H            4.98970169325895        2.47109760751494       -7.89671310378604
H            3.22153081195549        2.50901299857280       -7.66700862394107
H            4.33467030536216        3.44165637631672       -5.66983627531179
H            5.29116014855330        1.95873410924553       -5.47893235304412
H            2.60275054948852        4.45522761022216       -4.24264841830908
H            1.27095992686519        3.52229308340644       -3.53002997184828
H            2.11051575946539        4.71998624635106       -2.55805647106132
H            1.65751720806630       -0.13992509376626        1.76500959904211
H           -0.03253894429367        0.36714395517118        1.96246228100773
H            1.36013386998411       -0.55423665673530       -0.58669387501854
H            0.21424788422756       -2.22451621219238        0.97128932738675
H           -0.49040731926033       -2.13178036732748       -0.66917715742546
H           -2.62525977866201       -0.99167159715164       -0.94136319209145
H           -3.29617441666281       -0.08679156422722        0.44591605793050
H           -1.52987744303309        1.51245206587605        0.42457457789344
H           -2.06237229018743        1.35506539548819       -1.27016193020704
H            1.78239672923040        4.07213405165293        4.37023711674005
H            0.24749805827963        4.87446003043579        3.95976848281422
H            0.09619718482750        4.08137037994415        6.28173110823186
H            0.57624060013670        2.44910490449750        5.79451100762863
H           -1.95976157156594        3.91353920964069        4.90777366585953
H           -1.88987321808638        2.52942891123977        6.01262459910644
H           -3.75838289548986       -5.25721721719541        1.14731059166966
H           -2.26686782407482       -3.67636958272718        0.00710930421533
H           -2.55447805731153       -0.90348780113775        3.22427106315385
