151
 energy: -221.314768706356 gnorm: 0.009335485600 xtb: 6.7.1 (edcfbbe)
C           -9.57023455987420       -3.32813384272874        4.02889174648325
N           -8.66153666322245       -4.75751824845420        6.26081357755851
O           -8.34758408463791       -5.33783094245865        3.31978414411690
C           -8.23935776939620       -4.08187831683794        3.98331002496235
N           -4.96793355977548       -4.66488597898041        3.74894116559714
O           -3.63217910940471        0.87876885221249        4.39850608148041
C           -8.55993891415248       -5.24573163653590        1.92751315032007
N           -0.87969374334157        2.60061879806875        2.91091737290802
O            8.84527149712807       -0.57061079914146       -6.64243723156081
C           -7.74284619706971       -4.37404479662844        5.38587251554145
N            0.37487872103443        3.06686969397341        3.31755205575685
O            6.25261602903497        1.72061696717774       -1.40727783496263
C           -8.30353431448215       -5.01588545699608        7.50528505904811
N            2.52084685437169        2.00128545361420        0.59296370819789
O            2.02755085669037        4.12133507463110        0.05185546555106
C           -7.00117560023450       -4.88688630812680        7.96327474148302
N            4.16830517730292        2.43165087995578       -1.88509866274464
O           -0.04110473304461        0.37643196694540       -0.56437437788644
C           -6.03491371173938       -4.48955430918532        7.05715099689620
N            6.89161350408749        0.29352563435068       -5.88472948181090
O            2.59274879664985        3.16622807611550        2.97884003192059
C           -6.39156000085542       -4.23584325668140        5.73343723481421
N            6.73674905490320        0.94893302058133      -11.24738939965039
O           -3.56613796207524        2.17911575841396        2.57435816168940
C           -5.35848652871513       -3.82923844435586        4.77315438444553
N           -1.37862487465649       -1.28710673776233        1.26528383727721
C           -5.30810276513857       -6.06225839039054        3.64428656084702
C           -4.39469784368287       -6.91772838592510        4.52063769480463
C           -4.65036904162989       -2.64925543083730        4.72858446491703
C           -4.71240894497954       -1.51468211950404        5.70163066422615
C           -5.56624058333699       -0.29143356289685        5.29371818728393
C           -5.61911589693103        0.68013036153827        6.47695564381803
C           -6.98214473891763       -0.72762770007489        4.92261768479636
C           -4.95900189141255        0.42921619275856        4.08399405996535
C           -3.04469135079195        1.71512570911664        3.56380272241656
C           -1.63891711258444        2.05628197489141        4.03242887052814
C            1.48879836441107        2.74849557703901        2.64483675618953
C            1.31451890043640        1.88748911757549        1.38635497286811
C            2.81284980026119        3.18256565271484        0.03074935977101
C            4.17620911520167        3.23956101593576       -0.66454030514243
C            4.63150333385270        4.69891138707542       -0.90230355054213
C            3.85199786229535        5.41027008285732       -2.00550358707150
C            6.12744031722218        4.76351649637960       -1.20079240646081
C            5.28237157632473        1.73870702238263       -2.16356643953648
C            5.39796647306782        0.98991600692340       -3.50913445563635
C            6.58062861391796        0.02096087676393       -3.45896770674532
C            6.78006205681074       -0.66467434404730       -4.80631998144420
C            7.88661075796144        0.19244555412646       -6.78174170337437
C            7.74780238437489        0.96005376587624       -7.99159373716710
C            7.72625798893482        1.34416287493664       -9.13447648407616
C            7.66132588549236        1.82794974260027      -10.51168061615290
C            6.53872450206226        1.29937895208149      -12.63926766059345
C            5.46010568977900        0.72718891326435      -10.60006768314319
C            7.25514805811779        3.31524011677030      -10.50679351908606
C            9.08107034484770        1.67125196533463      -11.08336138183278
C            5.78540415097202        1.21344323593749       -5.98869642374177
C            5.60739227648010        1.97173907593425       -4.66869787263186
C            2.91129653745563        2.32147075961582       -2.59997358628745
C            0.96751215774555        0.43465046373969        1.68960306432916
C            0.67874306146546       -0.36972971756484        0.40439301967387
C           -0.08222655624402       -1.66344669642347        0.74218748099409
C           -2.13550126247084       -0.58227689824517        0.24051902015914
C           -1.37066863919911        0.67046105588415       -0.16813508109161
C            0.39624584084524        4.03317671927651        4.40676650696932
C           -0.32156575915786        3.45588024558362        5.62229833126213
C           -1.73292756220748        3.03237046229414        5.22025655909146
C           -3.77301010747646       -2.75934091933853        3.60930747362892
C           -3.98678263153937       -4.03823633898274        3.03433616301082
C           -3.26344708143612       -4.45765140032741        1.92276485130024
C           -2.37096492906511       -3.57595396184385        1.35132929822765
C           -2.17436499429162       -2.29534619096100        1.88744483590429
C           -2.84030510300691       -1.90410345752588        3.03077844931605
F            4.23661356529878        0.24110679273242       -3.73967427891458
H          -10.35930101305692       -4.01687543394600        4.31976422262566
H           -9.51252309978435       -2.53004310655713        4.76144810016106
H           -9.80348498039619       -2.89649101839903        3.05973549987430
H           -7.48368333580559       -3.47500106772622        3.45741496795550
H           -9.53468807476243       -4.80409133302009        1.69839850653716
H           -7.76866210137202       -4.64745718551288        1.45238292838558
H           -8.52460966920813       -6.26832865944885        1.55297343261605
H           -9.10351727610521       -5.33202417470311        8.16059358199261
H           -6.75324694629967       -5.09554469572276        8.99098866706924
H           -5.00209258208456       -4.38323827880267        7.35597669610937
H           -6.35006025769330       -6.19740904439354        3.94034647343648
H           -5.20943463128759       -6.35823500134005        2.59788052085623
H           -4.54773381733963       -6.67878916781657        5.57167911711749
H           -4.61301279823343       -7.97091600166133        4.36751760975097
H           -3.35186048270283       -6.73200072709335        4.26865000839428
H           -5.11615343946994       -1.88888960382416        6.64388185604864
H           -3.69457044216038       -1.16377022387842        5.88053010588339
H           -6.16991584405607        1.57916725064085        6.20423849345279
H           -6.11878356051614        0.21728099174913        7.32471675244169
H           -4.61353631067905        0.96622607035206        6.77658119575451
H           -6.97199333548661       -1.32535518891440        4.01580646999187
H           -7.40736657010821       -1.32730229643926        5.72202310379586
H           -7.62033648291205        0.13605724248679        4.75841316664424
H           -5.56439868173651        1.29631628504274        3.79742815189188
H           -4.89847271991400       -0.24450873591508        3.22297545894420
H           -1.14575838507515        1.13761715730426        4.36376615655040
H           -1.42317785264347        3.35417551464721        2.48097693112674
H            0.51656258569231        2.35000864142740        0.79766248678990
H            3.23644782659149        1.29999801481666        0.70766276740020
H            4.91250563503875        2.78101649508799        0.00789377112620
H            4.43837895562486        5.21490228846854        0.04514543192018
H            4.00259196522162        4.91897089100050       -2.96262321563787
H            2.79230378541207        5.43820026346004       -1.76704034222692
H            4.20780123992186        6.43430085172679       -2.08737296137303
H            6.33897474334827        4.32375606214393       -2.17272892773784
H            6.46084578906774        5.79763414011467       -1.21051180937591
H            6.70071769747123        4.21805988751655       -0.45558039743427
H            7.46605979951012        0.58656102265083       -3.17261212616038
H            6.39924681172525       -0.73337833396504       -2.69234780976072
H            5.92178929319625       -1.31734133555352       -5.01004705137911
H            7.69127302606155       -1.26580204575352       -4.79835315244051
H            5.88749460648636        2.17398139355669      -12.77604434304735
H            7.49114767267134        1.48487733038839      -13.12339402436523
H            6.06892389782103        0.44879300053435      -13.13188432350468
H            4.81881576824639        1.62500781751994      -10.57671635603282
H            4.93459854792395       -0.05195314938844      -11.15524152361188
H            5.62059211552886        0.37673886194944       -9.58014236959467
H            7.28139045583589        3.70809228319014      -11.52015146611360
H            6.25301920438096        3.44014033695359      -10.10330368744427
H            7.94911231561597        3.88401607112132       -9.89476680060514
H            9.80353552073602        2.09037111484078      -10.38743798895433
H            9.29980087617597        0.61653981047544      -11.22078158766134
H            9.18232476879428        2.18730575058664      -12.03410552370957
H            5.98186800849284        1.91720132811706       -6.79986081444558
H            4.86721211298381        0.65623427319710       -6.20994261628860
H            4.76329046649048        2.65221254353562       -4.76334940585516
H            6.50134740877006        2.55495768664898       -4.44716896813220
H            2.39030447121288        1.39815557543918       -2.32979837580680
H            2.27808566155068        3.16250720758259       -2.32686437480465
H            3.05784062025602        2.33199275570611       -3.67623209051421
H            1.78651927611357       -0.04225399916267        2.22711957283378
H            0.07459050162069        0.41338710861424        2.31183941829882
H            1.61651982325057       -0.61708598538128       -0.10424189222133
H            0.45561141952907       -2.23435936255582        1.49683248960728
H           -0.15579880096605       -2.26502683365482       -0.17935883343625
H           -2.30367378801902       -1.22605423740220       -0.64149324639921
H           -3.10316453208840       -0.28865676082306        0.64965847284442
H           -1.38277303659249        1.37428983073852        0.67185342337016
H           -1.83309552370801        1.13799059196397       -1.03836972611838
H            1.44174827627637        4.25662457754390        4.61889014390811
H           -0.10189032938106        4.94983854746689        4.06879623875737
H           -0.35788435864367        4.20619561309156        6.41022105715135
H            0.23200463809053        2.59149554536346        5.99167101204636
H           -2.31622803565104        3.90738628450796        4.92367665511908
H           -2.23958684669762        2.54268933050012        6.05136726688310
H           -3.40615087337263       -5.43910668582342        1.49581783932239
H           -1.82103247691336       -3.87169563334037        0.47026219842565
H           -2.63042728066434       -0.93189009004114        3.44071700787668
