151
 energy: -221.323005965157 gnorm: 0.003675732775 xtb: 6.7.1 (edcfbbe)
C           -8.92554731018820       -2.60135375112996        6.66297471547416
N           -7.77941825922109       -5.15296824398103        7.04225084463925
O           -9.29232186052270       -4.10855675846414        4.75897723295927
C           -8.31116250209528       -3.38824414708126        5.50368091523207
N           -6.06616221948092       -3.90700668154061        3.10598515847557
O           -2.73955229458660        0.31486115177555        4.96624957838573
C          -10.15192744034578       -3.30076728008147        3.98510523942400
N           -0.96758641477860        2.70024997414097        3.02721078458561
O            7.86685281681409       -2.01495832857333       -6.15585062310972
C           -7.33348010406748       -4.42258131471208        6.03031864294800
N            0.32896699025660        3.22005955298600        2.98683399590195
O            4.81271113627276        1.21157803924376       -2.48821006376526
C           -7.00109672681274       -6.07827853205514        7.57188999488553
N            1.65243870376585        2.22405883450662       -0.25520986880582
O            0.64888961792188        3.70223931430100       -1.63053822925448
C           -5.70960217985226       -6.32255763409266        7.13108685514972
N            2.91268230505146        2.16808629061397       -3.22601989238072
O           -0.92430385663833        0.97928857849487       -1.26198354026224
C           -5.23348327255496       -5.56466891232622        6.07764016276056
N            5.99847144923694       -0.75498514492188       -6.41779363375791
O            2.34017570560221        3.31970756826656        1.99825219947945
C           -6.04888500670645       -4.59527307169877        5.49216155306234
N            9.20741100650438        2.33924153140505       -9.58659430255647
O           -3.53405716028738        2.14336574612849        3.94303263852001
C           -5.51268266823141       -3.82261369162690        4.36549600948707
N           -2.63263656137125       -0.51093632874271        0.39919443198109
C           -7.03986563634756       -4.88105840937001        2.67832289597006
C           -6.36971640208037       -6.18824460741082        2.25815747572222
C           -4.41691442848351       -2.98702296976944        4.34869267412296
C           -3.55009603871283       -2.57679245069784        5.49540649140181
C           -4.02634769488774       -1.31032666347093        6.24464760079901
C           -3.06903308977348       -1.02982223640612        7.40478278758323
C           -5.43937601713255       -1.51366495051740        6.78669883941654
C           -4.06834171505632       -0.10017541636271        5.30332486323654
C           -2.61055852731666        1.45637950105941        4.32058195959742
C           -1.15157523986298        1.85422443327239        4.20199640745869
C            1.16910541020043        2.94989483505418        1.97787267643286
C            0.60266595688625        2.23972610645524        0.74174808051514
C            1.63207279039700        3.04616322022758       -1.31108738241666
C            2.94412890210550        3.10528626892670       -2.10365024062077
C            3.21504651065433        4.54762774610260       -2.58041701278929
C            4.55193178617389        4.63186281806432       -3.31021463512237
C            3.20768627886338        5.49713621637166       -1.38310155061694
C            3.92810970959902        1.30400337200038       -3.34153349038190
C            4.10836081995420        0.46181261228112       -4.62062577773740
C            4.81098242339323       -0.85787106430843       -4.28981121709374
C            5.19373827318832       -1.60373773088057       -5.56881838185889
C            7.30875830409862       -1.00175266880179       -6.58566092373165
C            8.05976427541435       -0.01863072761476       -7.32268360705264
C            8.84463366106434        0.70248114705626       -7.88413804826104
C            9.83292903916300        1.59145392515344       -8.48833943152716
C            8.50731866838292        1.51230459129627      -10.54888270773320
C           10.09342456562587        3.26157808536976      -10.26823828587633
C           10.25648410154596        2.56411817701676       -7.37177082017753
C           11.03570311221287        0.71958968064242       -8.90575569219899
C            5.32845982180065        0.45208635669117       -6.83261217118039
C            4.94278758629096        1.28916679353066       -5.60937149192841
C            1.78997456260875        2.28239630084951       -4.13670250213613
C            0.04368010014635        0.83894720764303        1.01158145654548
C           -0.36580491148509        0.11433174166142       -0.28689912740677
C           -1.33012364593368       -1.04163941031739        0.03595120307981
C           -3.17219644807419        0.27747024951640       -0.69197947246134
C           -2.21725721689381        1.44538489357081       -0.92128663917152
C            0.75695129004007        3.98461344543413        4.14898785109131
C            0.64607731004745        3.12038801897002        5.40263520705673
C           -0.77467726603580        2.57269356667472        5.51488156576429
C           -4.27316210581283       -2.53701342810158        3.00089070178834
C           -5.31950487450593       -3.13695190753897        2.25800175681034
C           -5.47807972864542       -2.87389338009535        0.90365013621158
C           -4.58647812831833       -2.01572971735661        0.30022398198278
C           -3.52616598985397       -1.42843038053303        1.01125830020177
C           -3.36386533386880       -1.69556375068497        2.35893342321874
F            2.89475963245900        0.13514679734892       -5.23118178388688
H           -8.13657605904126       -2.19969891096538        7.29007342387752
H           -9.53079536138993       -1.77882623738024        6.29241645282773
H           -9.54112107174280       -3.27279413730210        7.25364881954899
H           -7.78804078689183       -2.70171928823857        4.81717920004880
H           -9.57708220499533       -2.66388290350645        3.30276338086435
H          -10.76992264563654       -3.98953700726417        3.41376981594151
H          -10.79290625071656       -2.67387784615920        4.60975663502131
H           -7.43607870403737       -6.63938608510229        8.38748449059324
H           -5.10262564380195       -7.08410202982828        7.59294245055981
H           -4.23919658153300       -5.72461466468260        5.68704408041366
H           -7.74109317366576       -5.07151851369776        3.49267812182083
H           -7.59571715066434       -4.45854121727016        1.83834879445515
H           -5.84539193626205       -6.62930385362669        3.10294916504495
H           -7.12032703855612       -6.89114599539588        1.90960739963102
H           -5.65413841614787       -6.00870433237572        1.45912281445840
H           -3.49820875851226       -3.38782687621906        6.22344263289745
H           -2.54425374054835       -2.38877905088481        5.11699556219641
H           -2.05206331012642       -0.91191410060153        7.04157335089212
H           -3.36058980100014       -0.11964644955199        7.92397088836356
H           -3.09284661767258       -1.85245150454142        8.11410231724798
H           -5.74467682629633       -0.66045923251119        7.38546712712804
H           -6.14035307340823       -1.62954912452758        5.96759412871024
H           -5.47930619924575       -2.40575914712642        7.40670722012661
H           -4.57563182400982        0.74336900316858        5.78421880690412
H           -4.60787230870325       -0.33715225151894        4.38139868253995
H           -0.53450983934493        0.95869407336871        4.08326158097208
H           -1.65803172777010        3.45245964852873        3.04545093809553
H           -0.18653479110458        2.87676601730596        0.32814645825431
H            2.52206605587084        1.78693060862768        0.01562792408114
H            3.77100894043342        2.78664987719848       -1.46104102626355
H            2.40947641793949        4.84361528831102       -3.25881207911148
H            4.70897390147465        5.64108905640035       -3.68114081996078
H            5.36611069877280        4.37904747239681       -2.63362882501084
H            4.58527595303884        3.94598142154206       -4.15252698720895
H            2.21733586245245        5.54631872543478       -0.93732743473752
H            3.90934057623052        5.16316461690478       -0.62132688977765
H            3.48882529187031        6.49671890684283       -1.70274569460502
H            5.69742765322279       -0.63173371408982       -3.69715014134863
H            4.14254969439844       -1.47563779251070       -3.68964804484472
H            4.29019290905149       -1.89360147319918       -6.11366466729296
H            5.77651235555091       -2.49430906383913       -5.32870607140946
H            7.89661198897797        2.16277620625802      -11.17470175372662
H            9.18177274497506        0.94169600843621      -11.20583115519070
H            7.85545612996867        0.81421307962390      -10.02758646631753
H           10.59306763546213        3.90424878010143       -9.55021931831896
H           10.84898840290863        2.75631023679245      -10.88807864729653
H            9.48601309129840        3.88773688896116      -10.92098175359083
H           11.18250466158049        3.07004166212810       -7.62854799770991
H            9.47357520812731        3.29978314238759       -7.21331197819816
H           10.41472460225960        2.01144092209190       -6.44923319249210
H           10.76134394074006        0.05046018894958       -9.71806597015220
H           11.86432512650099        1.34734351389100       -9.22288500376660
H           11.35687569591213        0.11521928999257       -8.06137616176181
H            5.98277315921208        1.02687536816571       -7.48881456662945
H            4.42144955935384        0.17130220483096       -7.37790243404409
H            4.37265280001736        2.15956034534344       -5.93371653827827
H            5.84069237927066        1.62396322549262       -5.08829507818397
H            1.11429889794143        3.04047063805385       -3.75217268312312
H            2.11432884684243        2.56473891179804       -5.13726276410148
H            1.23927527098861        1.34464857127028       -4.18894662704173
H            0.79159816713613        0.22988880247704        1.51944809369584
H           -0.83656142350224        0.93617480047395        1.64354287271726
H            0.52573976694340       -0.28536788983247       -0.78201461699512
H           -0.93768260230060       -1.63006163027620        0.86530349319100
H           -1.40607177311919       -1.69266748872050       -0.85406179474478
H           -3.25503053811407       -0.29830569981153       -1.63006534071000
H           -4.15493747129517        0.65381234673325       -0.40564612653987
H           -2.18630260737118        2.06203113450738       -0.01553906779849
H           -2.53329801660195        2.05870374208319       -1.76589920072415
H            1.78289556041017        4.30492527530833        3.96981514900858
H            0.11116675803738        4.86488509630866        4.23506314479331
H            0.88789705747923        3.71971602557903        6.27937270974116
H            1.35902080970122        2.29749958195814        5.33704485694555
H           -1.47702901205159        3.39266820890208        5.68243100023563
H           -0.85456146993185        1.87258982403125        6.34536997150729
H           -6.27471654998601       -3.32209634508721        0.33003884580436
H           -4.70254622318960       -1.79966330406864       -0.75019235948465
H           -2.54760338891301       -1.24082657609204        2.89828773530775
