151
 energy: -221.324105663731 gnorm: 0.007651288222 xtb: 6.7.1 (edcfbbe)
C           -8.84983526404865       -3.91546447825007        5.20592444894019
N           -6.99018364636900       -5.79001170225865        6.11085024744920
O           -8.06773339704755       -5.28050726771423        3.32121575426948
C           -7.68003803319406       -4.33126645555802        4.31542799936049
N           -4.85488912814666       -4.13204880732481        2.45448663571801
O           -2.84343160242235        0.62034722896898        4.98293137674328
C           -8.79381870866666       -4.73414264580429        2.24174549590302
N           -0.44970096304754        2.88755100503399        3.62023335978030
O            4.31369824130907       -2.45664511922122       -6.65746992791830
C           -6.58798825692915       -5.00045511921222        5.12556137313800
N            0.90813993075890        3.16658602852061        3.79123982920987
O            4.33706400946733        1.45635507692628       -2.13510573976435
C           -6.09222116221641       -6.42097999793823        6.84709462055941
N            2.27869580280910        2.91558269457047        0.41672881274731
O            2.00086904493241        5.11965969899370        0.00046059049825
C           -4.72663312860741       -6.30800033877827        6.63628126760428
N            3.08710604097869        3.30702153874250       -2.41810666398863
O           -0.67895072582140        2.31628514852696       -0.73398174753638
C           -4.29591921059471       -5.48303383712765        5.61251839701257
N            3.67070112116308       -0.31443224986777       -6.28570896616798
O            2.98137565121051        3.26409123339033        2.93280249200495
C           -5.23108201036692       -4.80332207545968        4.83228430755230
N            8.58193244875744        0.39808866495574       -8.51663824580738
O           -3.14233117107058        2.59391429243302        3.96237443157922
C           -4.73276408252746       -3.88316857536373        3.80196898519039
N           -2.00953291489676        0.19830728249968        0.51577388569169
C           -5.28418814229031       -5.37419279115443        1.86129037234653
C           -4.09884205404995       -6.30879354858585        1.62410918138312
C           -4.02995223400415       -2.71811008608624        4.01438631811374
C           -3.69684086669713       -2.11285182604751        5.34051471637648
C           -4.56492490678231       -0.90520100869355        5.76537392869804
C           -4.27613889196711       -0.58982920270725        7.23565385382520
C           -6.04948093422905       -1.22549970200426        5.59203346779671
C           -4.24779186509880        0.33090570178497        4.91685230249692
C           -2.42303182592810        1.75019523080906        4.45014573653235
C           -0.91351907467159        1.87983227711856        4.56787454090886
C            1.77942865472488        3.07354614737830        2.77557830414036
C            1.20840758083581        2.79010947050989        1.37904162173388
C            2.59456892933495        4.06649370658411       -0.18408230689954
C            3.70232601376722        3.89934873092047       -1.23142929646264
C            4.43676414386241        5.21674707277561       -1.52628830409840
C            5.24474260678271        5.11644964829878       -2.81726628710534
C            5.35401532468379        5.52055674946911       -0.34220330221633
C            3.49930721289752        2.08885058238328       -2.78355087078574
C            3.04801289021850        1.46179147671706       -4.11173539352967
C            2.92593786196683       -0.05773372282349       -3.97366213344275
C            2.64535647196757       -0.68742339401920       -5.33843548119359
C            4.45770278366485       -1.24787293288918       -6.85091389486386
C            5.49607456958279       -0.76046527109389       -7.72313407768510
C            6.42429063084901       -0.55213165363915       -8.46045044349832
C            7.54666250976464       -0.23715902603518       -9.34373501605494
C            8.15856315766966        1.63950974625434       -7.89963906144915
C            9.87346706233919        0.55968110439129       -9.15161565522854
C            8.04674006634782       -1.57849483953878       -9.90318751179221
C            7.02831173932346        0.64104865003223      -10.50250997418995
C            3.79985075206853        1.10791828145639       -6.49059162924682
C            4.10591619730407        1.81339755836804       -5.16669842015392
C            1.98541677147797        4.04537164374235       -3.00544084243186
C            0.54939381170224        1.42022864276888        1.21739116322817
C            0.04135108978349        1.20623887131553       -0.22238592238842
C           -0.82992764285983       -0.05848088972832       -0.28133741848541
C           -2.78878574127688        1.26484363334687       -0.08209815086885
C           -1.92567555424164        2.52719445934085       -0.08627226919552
C            1.33814165978954        3.55056584007786        5.12876594663658
C            0.94505301803327        2.46453651157450        6.12746553517640
C           -0.55777728605481        2.21587887712577        6.02930055685365
C           -3.67435466556395       -2.22786446062669        2.72364969849658
C           -4.20772051063460       -3.13749483732249        1.77660407948270
C           -4.04322078695347       -2.94128208774844        0.40885486441285
C           -3.33430775480194       -1.83566216531390       -0.00518834653975
C           -2.76621258941750       -0.94719833450519        0.91984098031447
C           -2.92185973099654       -1.14331805331339        2.27423789180669
F            1.80871077235411        1.93329064654698       -4.54869266414314
H           -9.60596062388754       -3.39648220150302        4.62395530225693
H           -9.28339702427657       -4.80103123277880        5.65997837697096
H           -8.49502250970043       -3.25202490988504        5.98769730612183
H           -7.25953184688603       -3.44798018782805        3.80857205585798
H           -8.22432910259277       -3.93021783972865        1.75865679439430
H           -8.94426375829624       -5.55280148511764        1.54155680324927
H           -9.76545406668951       -4.34504405188709        2.55936858491835
H           -6.49222321386799       -7.02936118615135        7.64335013161572
H           -4.02406722577397       -6.84113620602139        7.25679955887391
H           -3.24181466016535       -5.35982902421019        5.40462578190000
H           -6.01261117353736       -5.84806583267582        2.52288361847861
H           -5.77664521287972       -5.14822072760887        0.91153036455389
H           -4.44327096845508       -7.23424251369368        1.17236087113901
H           -3.37382744738041       -5.84100256225447        0.96175028754195
H           -3.60766010850408       -6.54259456150935        2.56577161520175
H           -3.81586220384579       -2.88121918870755        6.10551396910836
H           -2.65394460047319       -1.79328111969165        5.33370790723035
H           -4.57568969057084       -1.42450345170544        7.86643169397678
H           -3.21470191632595       -0.40464774763252        7.38423369035599
H           -4.83111648903419        0.29146896847115        7.54883005018141
H           -6.29214518718033       -1.35395301215013        4.54009186813842
H           -6.29248033066978       -2.14562408630027        6.11686096901316
H           -6.66308692135829       -0.42255501762416        5.99132751559911
H           -4.80173626523406        1.20410530744899        5.27546549010975
H           -4.51384564350195        0.16435482093939        3.86860249782947
H           -0.45058654195431        0.92389463108437        4.29839789833555
H           -1.01326712537044        3.73241648401062        3.72007047193255
H            0.49005722790910        3.58599135338291        1.15211376726442
H            2.90220181788933        2.12645167585920        0.32400411361376
H            4.43266874309820        3.16768074057822       -0.87175029124101
H            3.70387227661222        6.02321139645638       -1.60817558356087
H            5.88486981044426        4.23694751248424       -2.79038282476158
H            4.59312277961060        5.04572153578177       -3.68333005471893
H            5.86996544609799        5.99737344241189       -2.92961591277510
H            4.78679962902363        5.51625935452836        0.58637897544586
H            6.13844046308054        4.76984479504654       -0.27211929391679
H            5.81698780883844        6.49559070796146       -0.46183643014570
H            3.85723555555000       -0.43647879470634       -3.55359078975958
H            2.11226229202535       -0.29345150794527       -3.28681339546728
H            1.67620048800225       -0.33770755913214       -5.70771451566494
H            2.63604936824697       -1.77579558355674       -5.26373382309278
H            7.16929280590926        1.51181821022265       -7.46654551096335
H            8.85670120877572        1.87744317275578       -7.09805018611703
H            8.13836499558373        2.48596968838132       -8.60180172892790
H           10.56003810123800        0.95958081083180       -8.40643841756897
H           10.25566750146629       -0.40220604199268       -9.47959932637149
H            9.85689199986988        1.25376592677840      -10.00546273434795
H            8.71964765582446       -1.42182441466309      -10.74166671981785
H            8.55570703754796       -2.13684157002010       -9.12278377072077
H            7.19724426558539       -2.16373805458819      -10.24803125633951
H            7.86033610091564        0.93993702912864      -11.13712955271204
H            6.31946785904851        0.07511377146652      -11.10160190133228
H            6.53096622890479        1.53085272502784      -10.12484863727452
H            4.59732641924361        1.29502770888677       -7.20877864341392
H            2.85448021159439        1.49053493463211       -6.89046667857637
H            4.12970110505546        2.89142028231941       -5.32442557245998
H            5.07343680369152        1.49242038915113       -4.78055789209814
H            1.90621776311439        5.00014625487358       -2.49456554599448
H            2.14311710835494        4.22087008944067       -4.06737858712851
H            1.04451723558109        3.51038082116449       -2.86456594853549
H            1.27055728803163        0.63546683721813        1.44337798354038
H           -0.29610275433074        1.34017393137229        1.89571667088244
H            0.88974821864145        1.10758205587705       -0.90890390457569
H           -0.29217658426537       -0.91134986182814        0.13278506801799
H           -1.07060592163530       -0.26572147806449       -1.34038258336839
H           -3.09873553327152        1.02344356458033       -1.11625713338700
H           -3.68125752914084        1.43802335698162        0.52329909501251
H           -1.76970773109433        2.85222815913559        0.94944597615117
H           -2.40537041903943        3.32765131245915       -0.65098208661363
H            2.41696315696347        3.69723413890418        5.09065163882210
H            0.85280573391331        4.49776717205802        5.38961694925209
H            1.21281120252215        2.78252308691198        7.13342631351072
H            1.48868714962918        1.54771934891588        5.89491746555084
H           -1.10583641537266        3.10996820432104        6.33630980849397
H           -0.85705464906298        1.38786038735350        6.67093451658503
H           -4.45666485524768       -3.63060553216697       -0.31104396223518
H           -3.20048935117535       -1.64941141980743       -1.06020791038071
H           -2.44037537139980       -0.46606878334360        2.95785588275554
