151
 energy: -221.325762254544 gnorm: 0.009896807402 xtb: 6.7.1 (edcfbbe)
C           -8.61010139709619       -4.12586537224830        4.41476625648441
N           -6.75530669474494       -5.88781719549276        5.56764941767421
O           -7.63266742895101       -5.63514458631584        2.73254775175795
C           -7.36749881723139       -4.56963483045221        3.64568874940892
N           -4.35876128600725       -4.16969856219696        2.10994352817613
O           -2.99364462282883        0.80156522359860        4.60564496124206
C           -8.46075601944685       -5.28756251941350        1.64414905152151
N           -0.53670316379929        3.13754086138245        3.49677775661629
O            5.99509452394659       -2.47399255696491       -4.60071730893536
C           -6.31273588241161       -5.09570182100162        4.59949854926733
N            0.81370580412147        3.38914717378772        3.77173628395715
O            4.83571878807774        2.42057501014810       -1.34650429498950
C           -5.90143999566202       -6.38318449044252        6.44289711366005
N            2.27420403552214        3.53790764968015        0.43756129214310
O            1.48371893878383        5.57786826320188       -0.12880218194007
C           -4.54095153658388       -6.11235912981160        6.41328796555669
N            3.20578308491898        3.69557915718622       -2.23095575457678
O           -0.59182415595257        2.65856736892521       -0.76464097412489
C           -4.07039836239877       -5.29033748173102        5.40719589356832
N            4.44230854459333       -0.82251253900971       -4.71209016702007
O            2.90500280001891        3.67714044268821        3.01169115280640
C           -4.95903601342379       -4.76543827803994        4.46663348718558
N            7.19015271965453       -1.21461632046176       -9.69012239377523
O           -3.25381341584137        2.76554286609237        3.55467765879741
C           -4.41777428159823       -3.85624812144525        3.44924930689069
N           -1.66910522892021        0.32729754769161        0.35175938557647
C           -4.69879272899161       -5.43988141036541        1.51866302888705
C           -3.48606938103272       -6.36852921598076        1.45808270344311
C           -3.82596248008272       -2.63487396092654        3.68424607385049
C           -3.69350691571468       -1.94274047210525        5.00283462115652
C           -4.69294769215319       -0.78953980546387        5.26202008216965
C           -4.59340646258986       -0.37658395254380        6.73283024484149
C           -6.11912014259857       -1.23954434244575        4.95279407133567
C           -4.36563011723175        0.42656282506942        4.38855418832509
C           -2.56020918562780        1.94475587759016        4.11394191054828
C           -1.06831240899018        2.10042870134323        4.36839737901500
C            1.72532797147030        3.43174696673824        2.79027854644342
C            1.21917401868855        3.20382639111550        1.36535384634167
C            2.32210214835986        4.69645421771188       -0.23472346588189
C            3.48763927096770        4.73282876803771       -1.23492431266776
C            3.73110282966288        6.12654207863028       -1.82738221584004
C            4.77104030721037        6.06196948991455       -2.94420389612770
C            4.20196099775617        7.06099449678269       -0.71282080934301
C            3.89493890918238        2.55323855865085       -2.13498590626372
C            3.57133360687666        1.36762408125357       -3.06523433428374
C            4.14239863979600        0.07795712544868       -2.46626719750475
C            3.90016159506784       -1.10669934784481       -3.40173862861334
C            5.50804571345760       -1.49818156567930       -5.17836970939598
C            6.06273968742971       -1.01727182506044       -6.41593649316436
C            6.71012765738203       -0.67390828003394       -7.37284159884006
C            7.40504086614411       -0.25851319076993       -8.59002544334269
C            7.43455044289461       -2.59707516675541       -9.31781016365773
C            5.90619038830002       -1.10740522697849      -10.36092304819912
C            6.91923956946753        1.15037947596872       -8.96494381986096
C            8.91271328254595       -0.17452511099010       -8.28907302378479
C            3.87843134480761        0.35037254798135       -5.33530753216630
C            4.13781254749836        1.58990112538914       -4.47201083129002
C            2.01194594336032        3.91136351564973       -3.02454877455766
C            0.74502006003872        1.76981741712949        1.11024321248915
C            0.24566664247834        1.59540857640060       -0.33593637806453
C           -0.49560530086545        0.25880999856316       -0.48934587607324
C           -2.56742549720261        1.36343047670110       -0.12691313600160
C           -1.83571455239491        2.70379319464451       -0.08121579302232
C            1.16194488576847        3.70600190210600        5.14958860427422
C            0.67752795261152        2.59217394058282        6.07445096577973
C           -0.81941389775828        2.38180011313641        5.86327315552954
C           -3.35303018434875       -2.17599880712987        2.42113522918896
C           -3.69559581715321       -3.16370497878027        1.46344409883065
C           -3.34789620220174       -3.01643258336448        0.12400572830021
C           -2.67561522153416       -1.87518652894364       -0.25859956892298
C           -2.32655990124932       -0.89330804280665        0.67963849578033
C           -2.64184720901130       -1.05251626744188        2.01208699681206
F            2.18138362088381        1.19482759752926       -3.15635426118131
H           -9.33900854079653       -3.67642272582057        3.74662225712821
H           -9.04589472956208       -4.98857186047614        4.90965797895933
H           -8.32665148777334       -3.39324994678067        5.16486103419213
H           -6.95334620468006       -3.71914251585697        3.07763130347028
H           -8.39986486468979       -6.12084966077412        0.94691350613359
H           -9.49936610431155       -5.15175159549659        1.95414095121772
H           -8.10170769763731       -4.37374303985323        1.15795774509209
H           -6.33467132172965       -7.01425609168504        7.20790191752938
H           -3.87695423981564       -6.52968890280125        7.15253403368115
H           -3.02015611643847       -5.04796209894035        5.33088110997115
H           -5.49495564200955       -5.90205856835659        2.10604619373257
H           -5.07786736240048       -5.25516874804593        0.50953631753339
H           -3.76628057854139       -7.30815817699032        0.98990131017233
H           -2.68325716113505       -5.91044410287410        0.88092443872585
H           -3.11855713326361       -6.57393292580669        2.46294670273445
H           -3.83515187095558       -2.68033587531936        5.79520982545415
H           -2.68365346310632       -1.53775871376073        5.08981161383837
H           -5.28145395828815        0.43890843291317        6.94283800101114
H           -4.84607526749036       -1.21269172232901        7.38001520404524
H           -3.58398664605107       -0.04755682172613        6.96511936383952
H           -6.21854240736500       -1.51212445581762        3.90646205312669
H           -6.36593851238864       -2.10587220523456        5.55959358149509
H           -6.82897700125688       -0.44619173129135        5.17287950180227
H           -5.00672661916727        1.27708407248351        4.63387260647388
H           -4.49050115497495        0.19502403809112        3.32572558661138
H           -0.57565648424176        1.15690787892775        4.10399178344466
H           -1.09092379664276        3.98938801900549        3.60535884896037
H            0.40550103987795        3.91127835243242        1.17091144841820
H            3.07740530768976        2.92347116430025        0.42143671651776
H            4.39936908377802        4.41762792004261       -0.71355677318058
H            2.78605489631544        6.52284014845702       -2.21174951351073
H            4.41510135447303        5.47325830183191       -3.78570033167923
H            4.99851904748710        7.06430912134241       -3.29451950302641
H            5.68798208370732        5.60896631815421       -2.57356755002338
H            4.35040498280513        8.06296730690440       -1.10869995023696
H            3.45561392388229        7.10957852882571        0.07825086653342
H            5.13980528036434        6.70860645726606       -0.28552801604636
H            5.21156895232882        0.22482295865730       -2.30064086886547
H            3.67180561222214       -0.11086808720994       -1.49832314070032
H            2.82496175930355       -1.29569884487143       -3.49167167796403
H            4.39331015483631       -2.00087975783155       -3.01570549093302
H            6.64420812884493       -3.01143832976597       -8.67037934280283
H            7.48305301175493       -3.19124332678798      -10.23056419639576
H            8.38434223759348       -2.69378220809050       -8.79878177041819
H            5.81321938382910       -0.13668290048508      -10.83916245767420
H            5.87167581736772       -1.86751387276048      -11.13846080192432
H            5.05008894168600       -1.26722215118561       -9.68570764287005
H            7.36657386967668        1.44911115843728       -9.90824183277783
H            5.83664180019940        1.19200988989607       -9.04401648143234
H            7.22777468584194        1.84904463008856       -8.19137755731021
H            9.28995654264048       -1.09499095930921       -7.85483058863447
H            9.44188355395254        0.02375214708132       -9.21557937308253
H            9.10382190178862        0.62975115389831       -7.58407643373874
H            4.31429847745429        0.47950960474075       -6.32719688675175
H            2.79635543071410        0.19969264112720       -5.43035186765984
H            3.67961583478060        2.45979627394409       -4.94149279919594
H            5.21020452442627        1.76949296779785       -4.37733866436054
H            2.00924008725754        3.29783123911361       -3.91861433500243
H            1.11477195806960        3.68717867018268       -2.43930028691471
H            1.97674540212580        4.95616437501784       -3.31956865966498
H            1.56982790073482        1.07673347185384        1.27832818875088
H           -0.06920427958217        1.52958304108576        1.78984150183640
H            1.09046419311447        1.62659259273750       -1.02955631972436
H            0.13605159456228       -0.56637658221983       -0.16203444928428
H           -0.73952656199116        0.12404528653619       -1.55728882657208
H           -2.90709779623204        1.15674488721030       -1.15790215201003
H           -3.43887771434142        1.41181970653871        0.52885162303430
H           -1.69110840282750        2.99549620488553        0.96531823942858
H           -2.41208975526665        3.47547122075258       -0.59252707905520
H            2.24497800960482        3.82298849455396        5.18723252915595
H            0.68664641364777        4.65620716619263        5.42119946779261
H            0.88345090098576        2.86507669673955        7.10868163742752
H            1.21633787270981        1.67128271208759        5.84673977390128
H           -1.36871700979491        3.27908601944034        6.16254868550221
H           -1.18152611664370        1.54043241520562        6.45274175802382
H           -3.60081456437220       -3.77122466795226       -0.60517454546679
H           -2.40949361324884       -1.73512977697156       -1.29563995594629
H           -2.31412031140568       -0.30315687227747        2.71046146384287
