151
 energy: -221.324387298357 gnorm: 0.004229118680 xtb: 6.7.1 (edcfbbe)
C           -9.03261811020591       -3.52716061641441        4.73966291089523
N           -7.53175756076311       -5.21894395667083        6.44787748558986
O           -8.24707536003001       -5.62818861416682        3.70772068435511
C           -7.85468079283199       -4.36195100040544        4.23923690440553
N           -4.79039214709040       -4.43804294706163        2.94005359178718
O           -3.15703685548262        0.82934302136784        4.49880466992969
C           -9.13032063070722       -5.58474166651194        2.60655094498092
N           -0.89432997479615        3.02906815766460        2.83495524931637
O            4.02404367217553       -1.96805016084124       -7.18806086994237
C           -6.92265955375943       -4.70924128420549        5.38563101622545
N            0.34590835393807        3.58552803313135        3.16697521241695
O            3.94027726095160        1.05484029705304       -2.04378236086500
C           -6.81966380458590       -5.59704498132017        7.49207812614672
N            2.46259883994976        2.49556464562357        0.44123286177062
O            2.17693793253816        4.66069265127571       -0.10669031465437
C           -5.43803815565995       -5.49159386631272        7.54186808394057
N            3.64786246569980        3.26488070052515       -2.37781893581764
O            0.15808642823821        0.98939066700408       -0.96667765598076
C           -4.79430083844087       -4.95401540778943        6.44414613812165
N            3.54063318936326        0.17496077175990       -6.62388132178105
O            2.57249647042484        3.60788528433755        2.85115486523545
C           -5.53142737189011       -4.54463980397057        5.32984873172614
N            8.39711847794069        1.24607959467762       -8.75922192899047
O           -3.56613841968277        2.24011133501271        2.80328295167294
C           -4.80026264681044       -3.92645446603970        4.21901565216052
N           -1.47606794132527       -0.70958561762825        0.54643128019419
C           -5.30477752704024       -5.72149936167092        2.52886875616176
C           -4.20925003746647       -6.78587547495194        2.52180754101894
C           -4.00316691991218       -2.80251653021859        4.28754670054251
C           -3.75339988305071       -1.91871028929958        5.46693531741549
C           -4.69629352528915       -0.69821666210388        5.58261302300975
C           -4.40328937324202        0.01860654602064        6.90324357916666
C           -6.15659713822771       -1.14654287048544        5.55276056430451
C           -4.47739076770454        0.27567178077660        4.41798453904845
C           -2.83771973592092        1.79917790006653        3.66391249321531
C           -1.45647705553135        2.33865567628784        3.98995349062130
C            1.45704779813827        3.23979920430690        2.50045846754211
C            1.24242652929917        2.43427716521395        1.21145757340753
C            2.83829469253825        3.62966193966951       -0.15339467404447
C            4.10347262513055        3.49624434450701       -1.00358092014934
C            5.03926622690989        4.69725200324414       -0.82334508201319
C            6.17943696294148        4.66140237314405       -1.83616483682677
C            5.58546248288290        4.65154678429155        0.60412213132828
C            3.56258303311587        1.98235047684762       -2.76194852331195
C            3.11552086470373        1.65213252707359       -4.19648331130304
C            2.74246456934842        0.17277027291035       -4.31425558885534
C            2.43457860349941       -0.19009628079284       -5.76806164514406
C            4.28794000962701       -0.76374476421385       -7.22846851262263
C            5.43303861194249       -0.29121958989818       -7.96546832016681
C            6.43728511988672       -0.08354252834506       -8.59717396452094
C            7.64464770238791        0.15260065789356       -9.38729405899150
C            7.69421631232435        2.51356384926849       -8.75336749873922
C            9.75356318776851        1.42457448113245       -9.23471944142101
C            8.44142179932320       -1.16121703382265       -9.33183177563109
C            7.20875514583929        0.42827339462720      -10.84208917264408
C            3.86348535295271        1.58006208716873       -6.59220977008495
C            4.24980546038894        1.99377521629338       -5.17049432568380
C            2.99034320891222        4.37555698857332       -3.03718114592658
C            0.81068805455376        0.98588718727656        1.42096611868285
C            0.71395813120698        0.21533740786131        0.08740829947404
C           -0.09482311726456       -1.07401552685732        0.30006890518614
C           -2.02070011628970       -0.03435889155255       -0.61587662868703
C           -1.22644136956053        1.25523329447675       -0.80313324775152
C            0.37019384034772        4.51180169546611        4.28906094809222
C           -0.20075431219857        3.84132501712673        5.53633828463245
C           -1.57796240110485        3.26284897116349        5.21768273092459
C           -3.46446229129178       -2.61394470957759        2.98193830728719
C           -3.97867490303528       -3.65451078629822        2.16946430719175
C           -3.66078573652444       -3.73629597790949        0.81766427676675
C           -2.83442004869399       -2.77106576846239        0.28771336294009
C           -2.30138683853299       -1.74415433843724        1.08284618072568
C           -2.59763295233321       -1.67256592996951        2.42723663106466
F            1.97255326272800        2.38681871396533       -4.54241225447062
H           -8.65584313985082       -2.63576069561703        5.23159657014609
H           -9.66997295859866       -3.22684869813694        3.91279400309863
H           -9.60475446742409       -4.11258721688480        5.45271008494009
H           -7.31133209417337       -3.80133727607658        3.45969487866520
H           -9.16600716033353       -6.60234966926203        2.22309212082184
H          -10.13528573134408       -5.27792105562498        2.90695970535689
H           -8.75660281567706       -4.90923416495436        1.82958364685698
H           -7.38727132749942       -6.00158675200004        8.31915741312834
H           -4.88812852702903       -5.82089297236151        8.40828207291427
H           -3.71870383034531       -4.86046744024962        6.42605878026963
H           -6.10181877611651       -6.02139868140015        3.21049602662530
H           -5.72956418415243       -5.61597596135601        1.52621728369041
H           -3.80610764610819       -6.91603476322297        3.52297354468475
H           -4.62156282228473       -7.73211412218525        2.18532275499291
H           -3.39894285810437       -6.49693408542125        1.85656132780416
H           -3.86133645597487       -2.49848303453242        6.38408314948057
H           -2.72823967083601       -1.54885043634402        5.41231488109667
H           -3.35995612799208        0.31835604437407        6.94804340794257
H           -5.02435809640084        0.90572115838700        7.00107098607843
H           -4.61180518147992       -0.64107488320046        7.74109750469171
H           -6.81879470458194       -0.29914347542555        5.71132466586477
H           -6.39489717382945       -1.59876756456183        4.59392915560330
H           -6.33761093827503       -1.87952478890553        6.33501423404831
H           -5.19823919301771        1.09876115111869        4.45839143739135
H           -4.58919943167819       -0.22895277404670        3.45408692499310
H           -0.79602749928427        1.50047671319817        4.23483808794646
H           -1.54243610534173        3.75261628657180        2.52085624049954
H            0.47629869968967        2.97559694688976        0.64273078707016
H            3.05374156593009        1.67966702341031        0.40573974615801
H            4.64301532482197        2.58958602398930       -0.71551629744642
H            4.45893709911553        5.61919463623258       -0.92871689420994
H            6.88079440995242        5.46525358143176       -1.63136938906871
H            6.70924887595011        3.71375614171483       -1.76557735715848
H            5.81181806063400        4.77287259932979       -2.85194007914448
H            6.20249636402128        3.76755069153072        0.74815332377336
H            6.19026278169544        5.53218994523638        0.80206601787041
H            4.77015624104594        4.62335194536754        1.32593676839261
H            3.57453442580380       -0.42146910123133       -3.93758547344996
H            1.87099000360026       -0.02064131569369       -3.68709689749700
H            1.54017413582845        0.34631114393034       -6.09981249278743
H            2.27118129281469       -1.26449153855853       -5.86559787465145
H            6.64843597440841        2.35180511366197       -8.50162166665994
H            8.14108495344795        3.15003872229899       -7.98929916193737
H            7.75172188764812        3.04192009016440       -9.71647673931025
H           10.32278137616050        0.50882220394679       -9.10943625294704
H            9.80838575576866        1.74341758178889      -10.28691826481250
H           10.21843880612622        2.19730980918148       -8.62402995698406
H            9.22079222052720       -1.17556970767606      -10.08789842998820
H            8.88186720570761       -1.28423970650656       -8.34639559425701
H            7.76785453844293       -1.99506489616935       -9.51486785856055
H            6.66491982624401       -0.43050480636566      -11.22745144664606
H            6.55907724597497        1.29840098897234      -10.89546053148634
H            8.08367284636840        0.59666016926753      -11.46598241819431
H            4.68524026439588        1.77819049820922       -7.27954102263386
H            2.97988737203108        2.14511835168553       -6.90645812720766
H            4.47259232536956        3.05917995986360       -5.14634749104290
H            5.13631174263756        1.44535404530905       -4.85036456464126
H            1.93193163382756        4.40718571969819       -2.76762311127687
H            3.45084682067932        5.30015773044689       -2.70524323971537
H            3.07676794238242        4.30682516915518       -4.11602889216759
H            1.52571529632589        0.47401293652740        2.06489314896214
H           -0.17081453538204        0.97699290712232        1.89113028352391
H            1.71331226774950       -0.03680852757478       -0.28401936514273
H            0.29309810408086       -1.61703237635932        1.16207176257908
H            0.00759845527722       -1.71294622994603       -0.59670414328220
H           -1.94143809825608       -0.64345554948901       -1.53372718047772
H           -3.06928599187585        0.20216964477114       -0.42977009694860
H           -1.39764031307191        1.90447646260329        0.06360298961897
H           -1.52685288838378        1.77521615897843       -1.71405036555615
H            1.40595711916203        4.81859769870938        4.43192840021778
H           -0.23109202577054        5.38715995472298        4.01820535708924
H           -0.27368653706066        4.57305696053784        6.33963111867175
H            0.46990435133429        3.04166993939723        5.85404252641708
H           -2.28011543310016        4.06845015407495        4.98749869759373
H           -1.96449527183465        2.69723113309762        6.06423816430892
H           -4.05209906507055       -4.52349595905560        0.19054130328580
H           -2.58308250308062       -2.80450464355846       -0.76479795174337
H           -2.16168049799967       -0.88702267883366        3.02227354032182
