151
 energy: -221.328085603846 gnorm: 0.008934086756 xtb: 6.7.1 (edcfbbe)
C           -7.76989564897065       -4.82615210734206        2.55716066736270
N           -6.39533275374640       -6.18183675758633        4.58083441223017
O           -5.97128818655087       -6.16514735671502        1.55946341495960
C           -6.26823096885368       -5.07611878963910        2.43354928017116
N           -2.97626498964267       -4.64421414440797        2.13548910231573
O           -3.17883559681865        0.87619797830871        3.83608378227205
C           -6.05920233470946       -5.85282476122926        0.18754716300731
N           -0.81733502597477        3.40776756061183        2.93914176184689
O            1.10916891085357       -0.36601460971410       -4.70893373629730
C           -5.66313644812943       -5.42193317176833        3.78104934452015
N            0.29469908729447        4.00269050864067        3.54669515077966
O            4.68977782426535        2.82312162871523       -1.67366018399100
C           -5.92667535649236       -6.50657525864776        5.77285730731528
N            2.82551176622947        3.76606357120289        0.94066001403619
O            2.24982639213756        5.91437986873391        0.58082567805139
C           -4.70051424998457       -6.07190920005979        6.25076747540524
N            3.92407408071640        4.94465585921758       -1.72716563810987
O            0.56448328287768        2.25243467563947       -0.83649114544293
C           -3.92536128410206       -5.28240832211532        5.42005079481539
N            2.41161291480510        1.38168371980807       -5.34861828092974
O            2.50023654986997        4.44141807735453        3.51301299189018
C           -4.39349406628236       -4.95441504927958        4.14964144632962
N            4.51747027298499       -2.16183896060142       -8.70834904852964
O           -3.30133760726782        2.46259685476316        2.25673750150551
C           -3.56613897353350       -4.12471482035604        3.26665717073575
N           -0.47040361091415       -0.05554902483498        0.35714926443548
C           -2.87273595838775       -6.04896499215069        1.82589527663203
C           -1.68502704045020       -6.68682628225850        2.54398485982716
C           -3.25417638012255       -2.79186950255258        3.40700321388966
C           -3.62364945116429       -1.89959764381301        4.54996278461163
C           -4.77110626829341       -0.89032393017146        4.31618820360066
C           -5.12544141681523       -0.24824875013548        5.66052586579706
C           -5.99823696221019       -1.59566620082615        3.74111536572502
C           -4.35109189594636        0.21267620499524        3.33607610683949
C           -2.75005767566336        1.95234358377307        3.20585086732166
C           -1.48228870796292        2.48643778580804        3.85598668598989
C            1.50624146097098        3.97621276598098        2.96843126049125
C            1.56471617911153        3.40314156034886        1.54841033361559
C            3.05702486513831        4.99729578306676        0.47873214838930
C            4.35068569608518        5.12157481268641       -0.33462844329919
C            5.10704903814386        6.42575648777536       -0.06280265730725
C            6.36451701371887        6.50454558894839       -0.92386038915826
C            5.46806112258383        6.46877489512829        1.42212470726151
C            4.12002053377357        3.74078605192312       -2.27703289988950
C            3.55200041793197        3.42119441429205       -3.66912545962161
C            2.13672153329927        2.87458071804391       -3.44530929495366
C            1.53393004356575        2.36061349902335       -4.74910838117616
C            2.11881248117351        0.07029952858360       -5.26702507634983
C            3.00625692639550       -0.81931250435849       -5.97094789618025
C            3.54519008079982       -1.68519455421807       -6.61136160066363
C            4.16975142217456       -2.74198391018854       -7.40494730364538
C            5.52358612492057       -1.12068733800928       -8.63429621126890
C            4.83580762361989       -3.11481117364324       -9.75293056414359
C            5.36570253185021       -3.32077266268884       -6.62149329096022
C            3.09072424010101       -3.82642307391232       -7.55898150566697
C            3.71798516765362        1.90370155757535       -5.67379141509147
C            4.41931131376505        2.39159799601745       -4.39991467748745
C            3.16039116800796        6.02971502331902       -2.30995597404751
C            1.37628030043259        1.89152418881155        1.46068309267683
C            1.37085961785038        1.42701966395464       -0.00968810685092
C            0.90033436508803       -0.03206162286359       -0.10853101563844
C           -1.31501036750630        0.71477102170600       -0.54076471336928
C           -0.82188390415415        2.15993884881173       -0.54379864453130
C            0.05857335902350        4.69887159776791        4.80191496925592
C           -0.57864526284532        3.74692070068050        5.80990062697536
C           -1.84325960403497        3.14289406528274        5.20205978011423
C           -2.41752406292342       -2.46667975567321        2.29840442005210
C           -2.25369360151733       -3.65134493706679        1.53609757203578
C           -1.46053623568023       -3.66838129006855        0.39368819009420
C           -0.86151076708870       -2.49296476356556       -0.00856517253893
C           -1.02455457328018       -1.31253421926014        0.72877977780373
C           -1.77326992721135       -1.30537632953596        1.88778072388132
F            3.49811202124012        4.55289391591668       -4.49052815738155
H           -8.25321266432123       -5.73338628139327        2.90551110683603
H           -7.94771044109014       -4.02861218882894        3.27181471549225
H           -8.18857381206642       -4.53567560709849        1.59753287925105
H           -5.76859277031657       -4.17423899655110        2.04569297611142
H           -5.41815242466299       -4.99726591006041       -0.05904830441261
H           -5.71246017059393       -6.73665238865857       -0.34306292152273
H           -7.08584123713065       -5.62937837295896       -0.11537527324757
H           -6.57224741541680       -7.13659232814508        6.36851873917825
H           -4.36326670785211       -6.34659585622028        7.23663721422617
H           -2.95697294664757       -4.92431560475994        5.73859111139001
H           -3.80049314464878       -6.54392740584702        2.12093446259767
H           -2.75840713631993       -6.15249717534213        0.74564001196112
H           -1.59913435445774       -7.73083976072490        2.25872933822034
H           -0.76351886540667       -6.17132438781917        2.28201874067687
H           -1.82121306776573       -6.62947249332496        3.62149166529779
H           -3.91851197573447       -2.53166287404876        5.38985521826315
H           -2.73714060699112       -1.33330455370804        4.84180545264504
H           -5.48538556732275       -1.00243230729446        6.35487266734435
H           -4.25118907368656        0.23203649876737        6.09053791375538
H           -5.90369132308624        0.50007830763217        5.53111244549630
H           -5.78499704128275       -1.98013435491093        2.74693909822135
H           -6.28004383290227       -2.42940293550390        4.37969652640817
H           -6.83747055253698       -0.90919741702741        3.67209203757599
H           -5.14736786760213        0.95437413966665        3.21507496049457
H           -4.11946956329934       -0.20554353439872        2.35166115784425
H           -0.80364941530416        1.64638921815756        4.03996159660956
H           -1.48439374305437        4.11939535025830        2.63305702005389
H            0.78097632569302        3.91225293336078        0.97405358638017
H            3.55406269274893        3.07089238784516        0.91007273188895
H            5.01021668494051        4.27798430725487       -0.11105599868006
H            4.45453264137855        7.27392468199132       -0.28333557299187
H            7.04718693881305        5.69635516205172       -0.66579148852670
H            6.12045757348500        6.42263013748175       -1.97946182343819
H            6.87093371402586        7.44891818670231       -0.75694948896525
H            6.01669341530399        7.38010267372738        1.64502319066385
H            4.56832046328941        6.44563803104812        2.03498404914298
H            6.08495137660895        5.61290863845341        1.69083090801901
H            2.21136584067100        2.05292066929651       -2.73121990318155
H            1.49020800756617        3.63183151429940       -3.00295812378770
H            1.40341037251664        3.18691546722862       -5.45594860095071
H            0.57148473837801        1.88467489318853       -4.55257829145408
H            5.28539820207691       -0.44260640306946       -7.81560483290585
H            6.54297987491308       -1.51087183066972       -8.49225839182005
H            5.50195659070123       -0.56107855165217       -9.56841121007152
H            5.72064029403986       -3.73203628436919       -9.53200385154659
H            3.98351387069926       -3.76341196961317       -9.93834172657619
H            5.03483745412820       -2.55205928490621      -10.66369339635978
H            5.83187295417588       -4.11491440348141       -7.19791248698206
H            6.10305995016786       -2.55251619584256       -6.41046541754618
H            5.01894849667604       -3.73306870775434       -5.67841623054811
H            2.66586290116915       -4.04660351713307       -6.58207872709248
H            2.29428087957094       -3.46728998859939       -8.20631194807992
H            3.51163472500720       -4.74032507530779       -7.96687467435845
H            4.30950865008928        1.12438617493117       -6.15433034649406
H            3.59360519114450        2.74280608814522       -6.36544081299362
H            5.37354366909895        2.85222714939368       -4.65618296389422
H            4.60563296504020        1.56119573357696       -3.71803523647403
H            3.79216097297059        6.64808838255587       -2.94849874821919
H            2.32328367516776        5.65851506502828       -2.89417821753287
H            2.75521095355936        6.63263372833795       -1.49946723474832
H            2.18524108727318        1.38549042639578        1.98701642777794
H            0.42729909198996        1.61396994996446        1.91265378469604
H            2.37487604508784        1.52112954252127       -0.43888488686048
H            1.51418013914017       -0.67492791327002        0.52934665788672
H            0.99970738473605       -0.36423449591761       -1.16426057629754
H           -1.28753545576362        0.30424360594953       -1.56823888791136
H           -2.34439266671587        0.69235612770024       -0.17460680881238
H           -1.04106270503181        2.61054394545792        0.43113594784714
H           -1.31900487685684        2.73366715843209       -1.32731462612222
H            1.02028904200285        5.07553756329288        5.14754643947811
H           -0.60971784751157        5.54413235136138        4.60460121468611
H           -0.81935064810425        4.28973242894070        6.72251665922235
H            0.13060062124621        2.95398016021923        6.05294856685296
H           -2.58695708665884        3.92520215958167        5.03212762788731
H           -2.27108426378023        2.39435572604130        5.86653745387418
H           -1.31601992427285       -4.57266239373565       -0.17845814650332
H           -0.25907338620725       -2.48001216359125       -0.90524584964783
H           -1.82998045011536       -0.39175954463284        2.45176405294353
