151
 energy: -221.334755968227 gnorm: 0.006057566128 xtb: 6.7.1 (edcfbbe)
C           -6.61361948452547       -5.27419285662595        3.23162317193709
N           -4.52000364530688       -7.06127401763832        2.88947659156572
O           -6.12888355195341       -5.41036070107156        0.83239579303193
C           -5.60066141111790       -5.04362871758333        2.11077008715406
N           -3.10707638355949       -3.92297272150222        0.02113151558628
O           -1.79230149924496        0.33415466315724        3.73799579616734
C           -6.94185066327395       -4.41908897142516        0.24025659646905
N           -0.70030108109205        3.62690907232273        3.12897123999784
O           -0.23212968116042        0.85644847621878       -4.74298194611248
C           -4.34706030946277       -5.86407320996021        2.34757666663321
N            0.35879838648307        4.45349606688612        3.51857924362619
O            4.23191027142039        2.97035632666555       -1.45671364916060
C           -3.46777979142004       -7.81449333244431        3.15400592890819
N            2.67849678109005        4.50952835238277        0.68947721050864
O            2.03281357224779        6.25684460175995       -0.58832997657471
C           -2.16409134509249       -7.40430342114763        2.92091600300423
N            4.17494737566861        5.08636838929655       -2.19444008917721
O            0.69031781662820        3.33568481508531       -1.33980422648702
C           -1.97343258675966       -6.16003134935530        2.34871252124714
N            1.95893703724507        1.30857749056235       -5.11886900534164
O            2.41820157435225        5.26443076287462        3.16691551206884
C           -3.07580130397791       -5.36705240673252        2.03023752344942
N            2.90134878070900       -3.79863681198499       -3.81560322347993
O           -3.07208124808611        2.13947805616263        3.37656209395762
C           -2.82701568192535       -4.08296822943843        1.36127251015458
N           -0.80410763351557        1.04774076926979       -0.71568761209239
C           -3.56022000929788       -4.96239524517406       -0.87062892290032
C           -2.40957333689330       -5.86054891162332       -1.32057210536011
C           -2.19423222608417       -2.96494144261358        1.85513216595145
C           -1.68982411522771       -2.71867747723471        3.24059504510760
C           -2.62968659246809       -1.92291749476280        4.17629726327263
C           -1.95265011858623       -1.79498500796664        5.54367442052079
C           -3.96726537430915       -2.64577736737758        4.33189598182404
C           -2.93594540848539       -0.52567826020900        3.61942781619337
C           -2.00112058529222        1.63006157718879        3.62896841492185
C           -0.75255716662274        2.42678841817450        3.96188905690512
C            1.43615318386566        4.66170363757499        2.74345054911568
C            1.38726612707369        4.21853922053440        1.27471293274770
C            2.89507938975901        5.47505368427480       -0.20578234817269
C            4.31868092467103        5.49268996795589       -0.78902551024324
C            5.00722795000809        6.83929356465732       -0.54880087647463
C            6.43556758831790        6.82531589752554       -1.09132329612148
C            5.02991178966894        7.10684178204255        0.95751935615539
C            4.05943211499461        3.76615180214696       -2.38566034559422
C            3.68520915042304        3.18712943819539       -3.76715841236754
C            2.22416230354583        3.50886057867375       -4.09800562028981
C            1.73162398714010        2.72017769138688       -5.31273195759621
C            0.94688629756330        0.49116761269279       -4.78540344519824
C            1.29179831084681       -0.87189554104150       -4.48586869597526
C            1.35716366994414       -2.04636808156405       -4.22874346753899
C            1.47600041180087       -3.47677940034819       -3.96603689111366
C            3.21326724244022       -5.21171996387814       -3.76124454851469
C            3.54300955829433       -3.09267933077117       -2.72563059588119
C            0.60721492061904       -3.79805995299626       -2.73236385830522
C            0.88653226640086       -4.18305826065302       -5.19895601520460
C            3.35689970562921        0.97836062132387       -4.98522189711626
C            3.93652883671324        1.67461108482701       -3.75308307752024
C            3.82653372426980        6.11545686969014       -3.15023136440450
C            1.03131775232940        2.74672196968464        1.02984328697721
C            1.22900050887991        2.36845410603060       -0.44789751856199
C            0.64346104487914        0.98157168562834       -0.73512891669704
C           -1.27835482648762        1.96618039575448       -1.73255754147797
C           -0.72736671460457        3.34555776292160       -1.37833575230866
C            0.33134110422081        4.90229581502893        4.90419374884201
C            0.33985943560159        3.68945089669611        5.83192664618125
C           -0.81773953155090        2.76163711176750        5.46832056544048
C           -2.04846641595165       -2.07165197832974        0.75217523247236
C           -2.62559093707026       -2.70588609109462       -0.37529086373561
C           -2.62816237413957       -2.08464974889811       -1.61867165536462
C           -2.03665278302269       -0.84478596535549       -1.73353001744707
C           -1.43534300797694       -0.21801611288736       -0.63102901675053
C           -1.44213530832692       -0.82675606617932        0.61005880107009
F            4.51601769991983        3.74294205954566       -4.75674470103146
H           -7.49422844502602       -4.65496190948274        3.08502856073488
H           -6.90139535626374       -6.32195173647837        3.23474654518340
H           -6.16294239936405       -5.02557369889900        4.18808103908419
H           -5.31542553472585       -3.98082298552128        2.06567718559943
H           -7.84020688900933       -4.22526240028202        0.83192547932804
H           -6.38334955650357       -3.48279315133540        0.11505055113144
H           -7.22757634313053       -4.80857621195242       -0.73477969635633
H           -3.68638599342060       -8.78369479369468        3.58092593371503
H           -1.32962277370975       -8.04020061552874        3.16913592481554
H           -0.98015148456748       -5.79476755970124        2.13104045886627
H           -4.32264964923175       -5.55976902859159       -0.36637448002280
H           -4.01790920352751       -4.48109895000383       -1.73725705390734
H           -2.77031309071503       -6.58101875155575       -2.04897671245090
H           -1.62230161032637       -5.26203767002327       -1.77229804481141
H           -1.99570209708956       -6.40072853348959       -0.47134312287700
H           -1.48857667446301       -3.67787029126368        3.72146449994986
H           -0.74992673531053       -2.16807261257081        3.16519239178812
H           -1.82503291058519       -2.77806243250688        5.98834953887582
H           -0.97672632433713       -1.32874926091883        5.44202308042174
H           -2.55819911295055       -1.18864260973212        6.21291331485922
H           -3.80689599002145       -3.69608444984397        4.56094095903246
H           -4.55137783045975       -2.20018255315316        5.13306574045133
H           -4.54116077860163       -2.57538102093847        3.41222381812054
H           -3.76043652769417       -0.06603187589253        4.17554097783851
H           -3.22492588539560       -0.57712638142485        2.56561457672282
H            0.13547990655928        1.82260344243658        3.75448413876689
H           -1.58723333202033        4.12587931472457        3.21818230787071
H            0.66815965738477        4.86849010378986        0.76173122921562
H            3.44250269741769        3.91308638047735        0.96860768107338
H            4.91520221254300        4.71090335702505       -0.30963681085941
H            4.42082522788003        7.63147195609200       -1.02058608241955
H            6.87945408646883        7.81205199561209       -0.99410475347928
H            7.03802413891270        6.12000975780437       -0.52374390901072
H            6.46956367107007        6.53014708992060       -2.13603861110853
H            4.02309948689667        7.11233201360168        1.37041096548936
H            5.60182473045837        6.34008026521023        1.47504413840423
H            5.48857533549995        8.07184409688163        1.15434204521954
H            1.62376237756024        3.26411859518838       -3.22013723025780
H            2.10350678267703        4.57045266647709       -4.29873918481297
H            2.26954449910834        3.03664303107612       -6.21119358001420
H            0.66090266362829        2.88080634882792       -5.45221721160650
H            2.82374340161321       -5.71099681397188       -2.86212996800180
H            2.83116688968792       -5.71348141436856       -4.64453262171419
H            4.29797783179837       -5.31080064236874       -3.75914896652987
H            4.61973385360894       -3.20110626280827       -2.83465975503220
H            3.29367216650498       -2.03521036656310       -2.77381289928174
H            3.26031537603314       -3.47643106633053       -1.73552353599018
H           -0.41665107057270       -3.48387033850949       -2.92092651228357
H            0.62654297497388       -4.86815610910300       -2.53724258698836
H            0.96005082118048       -3.26559387757610       -1.85209439062845
H           -0.05341111934567       -3.70748507111427       -5.46960150717038
H            1.57231211311516       -4.09898415064163       -6.03723901472347
H            0.69220550587916       -5.23036565568867       -4.98668665412817
H            3.47240039767700       -0.10231769108727       -4.89374805772284
H            3.87772470614641        1.32343538884928       -5.88295825622229
H            5.01107686740211        1.50080082968194       -3.69494796520747
H            3.47992843987977        1.27369954285826       -2.84810311334063
H            2.81759970026972        6.47900104396902       -2.94381170252912
H            4.51959042747435        6.94557364885034       -3.05228876155989
H            3.89654433367060        5.74297546835289       -4.16446031776374
H            1.67894363710838        2.10692076732522        1.62877338556611
H           -0.00606532502781        2.57214713737125        1.30478632498538
H            2.29889851090822        2.36111721460185       -0.68297718223129
H            0.98369284476688        0.27581429694033        0.02259029629857
H            1.00679858268829        0.63408172903275       -1.72171330194691
H           -0.94336911364866        1.68947876503923       -2.74598425979351
H           -2.36839584821813        1.98753808671818       -1.71294895539373
H           -1.13335177973315        3.66307262375943       -0.41100726413718
H           -0.98787991368415        4.08162431149259       -2.14019934371091
H            1.20355660295492        5.53500341879408        5.06322261248221
H           -0.57949345612122        5.49121748214561        5.05004463041086
H            0.24938348526882        4.01796345820445        6.86636342813528
H            1.28738941694833        3.16044834018549        5.71650120552884
H           -1.77193942853431        3.25287780766586        5.67659048414243
H           -0.76735858019995        1.83977089045974        6.04693021802417
H           -3.06613307276941       -2.55230281019543       -2.48780776614448
H           -2.00771744854611       -0.36140882006082       -2.69889450711031
H           -0.97109213859991       -0.33423873889313        1.44646165782693
