151
 energy: -221.323513565126 gnorm: 0.004689739166 xtb: 6.7.1 (edcfbbe)
C           -9.41459556279487       -3.45792614455059        5.30132848156713
N           -7.78960507355476       -5.28463117552037        6.63578707210988
O           -8.40686826232646       -4.95409803492393        3.63646453888055
C           -8.13965032054067       -3.96920996387062        4.63376947147096
N           -5.15712279670514       -4.27576495041499        3.14967348030529
O           -3.17377555213305        0.79276821187975        5.04197992996018
C           -8.87552665944005       -4.43702458874944        2.41118880835777
N           -0.58504625286071        2.69506681119324        3.47655300534804
O            6.84688284451470       -2.11188824396393       -6.75338134241427
C           -7.21478018083885       -4.61676909821824        5.64729607018514
N            0.79533971850990        2.86241366645173        3.62264528539574
O            4.47667661671681        0.86680922947518       -2.10227594365509
C           -7.03381720071370       -5.85823795468757        7.55574030668173
N            2.11354278213763        2.42452837261428        0.26000740314037
O            1.22008401809035        4.08193984007072       -0.98413973740407
C           -5.64983457288197       -5.78108839637295        7.55655172981029
N            3.17010377080032        2.54572511127117       -2.83329103502084
O           -1.00200144554325        1.79955583864415       -0.69697802122979
C           -5.03950072701700       -5.09183405120916        6.52406559124660
N            5.15426381072909       -0.62156395313989       -6.52283726862513
O            2.85727643717370        2.78760365606032        2.73950261255756
C           -5.82195773204171       -4.50458802962793        5.53158714801259
N            9.22133531795467        0.69457677825502      -10.41351118467929
O           -3.28915571946453        2.65824034736182        3.80323463692086
C           -5.16916887614025       -3.78045202469230        4.43472974040368
N           -2.21315485353901       -0.26447515068442        0.75034500736785
C           -5.51045812332179       -5.62295937728232        2.77560944226194
C           -4.34021338091551       -6.57908097335326        3.00417318652776
C           -4.48930609744899       -2.58564665873526        4.49982893168900
C           -4.19846382624021       -1.79596765774023        5.73702116663434
C           -5.01151863679391       -0.50057984946676        5.96297157683962
C           -4.74151208081464       -0.00914500501692        7.38806757328206
C           -6.50521896563835       -0.76394093622086        5.77942221720641
C           -4.59594210709348        0.59774456300489        4.97642856045312
C           -2.65109010488010        1.81218252799969        4.38900237709120
C           -1.13301190956373        1.80180343752140        4.49167232208210
C            1.64274107725499        2.66876769634472        2.60196361102587
C            1.04431444206294        2.34374178324817        1.23053938375965
C            2.13865163174575        3.30841931792280       -0.74086463478422
C            3.41865424387586        3.26413373229303       -1.58343840849283
C            3.95542510737692        4.68672356364157       -1.81525776723634
C            5.22553543446928        4.64956809815981       -2.66032231651416
C            4.23546275385250        5.33001895433900       -0.45783755105279
C            3.78864495885340        1.36815617468979       -2.99320562423536
C            3.73073726256106        0.64174651779728       -4.35724799447839
C            4.34895729142428       -0.75198601670743       -4.22711067464663
C            4.42493740778314       -1.44526491110055       -5.58649160518362
C            6.34845554196314       -1.01314440677681       -7.00207251661782
C            7.02976270321518       -0.06996705014525       -7.85352977256922
C            7.75900178638314        0.58082023138933       -8.55819872544689
C            8.57473977033723        1.48946202297171       -9.36247665945996
C           10.24218492923351        1.37928031801320      -11.17636617056915
C            8.28894654753799        0.01897310878201      -11.29303133293347
C            7.66662615771927        2.62397219804419       -9.88207150688874
C            9.62800880594081        2.07243001928799       -8.40546134781441
C            4.56113834767399        0.67447230511547       -6.74101436226840
C            4.47083742090054        1.45409057187397       -5.42470211116726
C            2.24547175069607        3.17928293992692       -3.75214871807966
C            0.38292400110991        0.96401887217369        1.17073281314613
C           -0.24274924544768        0.70360798784754       -0.21278059390811
C           -1.12490043104490       -0.55269739631902       -0.15809289206928
C           -3.03583020341457        0.81044440495420        0.22572953667279
C           -2.16610740344623        2.05791478575216        0.07145344911963
C            1.27630081439512        3.27832668090240        4.93354750705760
C            0.80369433413098        2.28403386287891        5.98949906090196
C           -0.71830632447614        2.18088579295955        5.92688533532062
C           -4.02014702112454       -2.32771759554279        3.17718450709255
C           -4.44273011573433       -3.41278344929178        2.36729830012150
C           -4.11031785466864       -3.47999770084682        1.01828633250961
C           -3.37591902203479       -2.44943177910509        0.47232961467977
C           -2.95465163797627       -1.36825637577534        1.25877311842534
C           -3.25570989500053       -1.31672213091233        2.60394474033348
F            2.39470767173791        0.46600520144394       -4.75551665079149
H          -10.04455478507815       -2.94670207384353        4.57883398192143
H           -9.95547942568569       -4.29761735899197        5.72633642918798
H           -9.15544460261520       -2.76387051256341        6.09456080898137
H           -7.60409698516060       -3.13145069933614        4.15825032292825
H           -9.88265702794685       -4.02123341293037        2.50317924034060
H           -8.19874691619748       -3.66252582835653        2.03108121574349
H           -8.89463233330332       -5.27756644243886        1.72099155034611
H           -7.57059545862733       -6.39175841689388        8.32794539877579
H           -5.07064229223369       -6.24776253488831        8.33669699654327
H           -3.96364848087008       -5.00933067434819        6.47038246982387
H           -6.37716431921366       -5.93651083693052        3.36027108127387
H           -5.79169709549252       -5.61918815584340        1.72063547597191
H           -3.44859170764116       -6.20572735697490        2.50466771066210
H           -4.12997066812577       -6.67195047217064        4.06677064003345
H           -4.57953084367363       -7.56133998704561        2.60894869427921
H           -4.37999168818719       -2.44231581722624        6.59779049724974
H           -3.14004687558910       -1.52735230309704        5.72952459933274
H           -5.08576909923577       -0.74197573630577        8.11258675850387
H           -3.67695405461811        0.15233434819625        7.53496615517762
H           -5.26264283866876        0.92701355597140        7.57265379800002
H           -6.72116186480357       -1.02665437986505        4.74703639179663
H           -6.81774733734909       -1.58719199658964        6.41671748565233
H           -7.08525231422165        0.11773895247549        6.03873351264991
H           -5.09196583771418        1.54477107686236        5.21122477252641
H           -4.85697335923012        0.31937962859740        3.95114677325611
H           -0.77602539569034        0.78760392094730        4.27771795845991
H           -1.06840646959526        3.59338514432835        3.51844605172699
H            0.31833059390731        3.11767396079688        0.96004259837770
H            2.93354779449372        1.86998084911858        0.46257086408412
H            4.17861942198919        2.68530477593636       -1.05026257643255
H            3.18374659071088        5.27358751092115       -2.32058692036890
H            5.02983192697719        4.25468404632288       -3.65297762872374
H            5.63265044362310        5.65145699881035       -2.76137833456502
H            5.97225781630909        4.01830953859600       -2.18333470388258
H            4.95207560872395        4.73854167975679        0.10764953950565
H            4.63772176671985        6.32973768399065       -0.59413510903828
H            3.32054249493347        5.40569439710745        0.12601217966963
H            5.34599738905742       -0.64267329737018       -3.80066491126904
H            3.75071357530698       -1.34639671510435       -3.53597200688161
H            3.41564986392884       -1.61612526757657       -5.97437736777300
H            4.94601463383873       -2.39970981602536       -5.49651621932545
H            9.85263982411369        2.20941440451108      -11.78921210677931
H           11.01987820869148        1.75615770417244      -10.51647980197107
H           10.69763606230604        0.65150672344438      -11.85118353991811
H            8.82668190722130       -0.76419399600345      -11.82737028499637
H            7.50183045725685       -0.44652379510604      -10.70265178436821
H            7.83233931178369        0.68946767211877      -12.03682117404459
H            8.24512743061906        3.31099636685887      -10.49428295640849
H            6.84748418882131        2.22274083820967      -10.47339682082554
H            7.25182435480023        3.17257836347078       -9.04111199338222
H           10.12120045570183        2.93010497771821       -8.85326017227917
H            9.14441536409579        2.39391315884498       -7.48648562826247
H           10.36462889886854        1.31183727064794       -8.16224378491417
H            5.16112529441485        1.22790920826943       -7.46399396464555
H            3.55245685921808        0.53011156511181       -7.14245187125033
H            3.95553260201463        2.39450397744777       -5.60743370070137
H            5.47142331111912        1.66158643013025       -5.04350135702900
H            2.75323060069384        3.93494932628261       -4.35288825552543
H            1.76878976861642        2.45316986310778       -4.39941829308686
H            1.46815657112195        3.66775725558984       -3.16465741599733
H            1.12848781724574        0.19245604301909        1.36142489782181
H           -0.40186512571638        0.90119619463979        1.91976702782764
H            0.54670920149059        0.57819414916554       -0.96243866681942
H           -0.55459347218393       -1.39985859791123        0.22427008496710
H           -1.46999383955993       -0.78023899654986       -1.18202746874213
H           -3.47480495735896        0.54020376028006       -0.75194876882362
H           -3.84296206870788        1.02183261887076        0.92882181496782
H           -1.89833604683079        2.43203022959345        1.06661703294587
H           -2.69935725790763        2.83739992911606       -0.47412045184634
H            2.36332277937082        3.32637958632241        4.87744475528485
H            0.88041721607233        4.27691816753662        5.14847174265398
H            1.12283644934433        2.61843551405781        6.97533046296523
H            1.25073749155578        1.30882891329872        5.79136353048100
H           -1.16692787095544        3.14106958734900        6.19345335301876
H           -1.08533399165968        1.42260752228670        6.61686339615807
H           -4.41809917823933       -4.31330921377769        0.40495818624088
H           -3.11579916685827       -2.47473455941642       -0.57565103930364
H           -2.87085062960309       -0.49508064231363        3.17991832834402
