151
 energy: -221.312002729561 gnorm: 0.005934491356 xtb: 6.7.1 (edcfbbe)
C           -8.50026968637175       -3.36059766119385        2.18261865226415
N           -7.89506669264410       -4.71842511764761        4.55362209215162
O           -7.27230003160764       -5.45003067765728        1.74717860290031
C           -7.19699802150330       -4.15109374534397        2.32355115233339
N           -3.78703696817377       -4.67087153396861        2.65081940725029
O           -3.08419098630475        1.34340389408208        4.51226476833992
C           -7.54963605922543       -5.46092703414286        0.36183737427167
N           -0.86118524349643        3.50442022019666        4.27425298070422
O            7.01811349168490       -1.21037876171082       -4.85414960946859
C           -6.87367254079066       -4.35488217645156        3.79087655688268
N            0.52501423012158        3.67781399735171        4.14384709299097
O            4.92263674887976        3.50149821593019       -1.37200390760426
C           -7.71264381497709       -4.89900081568157        5.84778349011351
N            1.44096248305804        3.26289492313788        0.66474857825089
O            0.85891276930240        5.43182991675661        0.80081968793159
C           -6.48936675970447       -4.70844339796454        6.47250654372252
N            2.72401412582933        3.85523039113805       -1.69883214588343
O            2.34315597208747        0.53340029070909        0.66547217427682
C           -5.41631764683638       -4.33857524630108        5.68415623202540
N            5.23456481937956        0.17878588794020       -4.66482805024493
O            2.49315013010564        3.63824685915027        3.06776634313542
C           -5.58642451566359       -4.16733205528327        4.30960327143606
N            5.17281583072036       -1.34401078910636       -9.68573188980896
O           -3.41861663182847        2.92927568073979        6.05360483467649
C           -4.40468967749289       -3.79301831591487        3.52046672940567
N            0.57273974405184       -1.53108728831594        1.32527877775457
C           -4.17093281450254       -6.05571149050816        2.48947563777632
C           -4.24133102278257       -6.51357237947328        1.03261823052171
C           -3.67768510160464       -2.63053604616178        3.62292438932950
C           -3.93898254358701       -1.41431515077228        4.44983296680919
C           -4.71848051751274       -0.28194710182044        3.73553419144200
C           -6.21307964528775       -0.59819929442780        3.76255889405419
C           -4.26877608190914       -0.08534662083335        2.28822936004725
C           -4.48688131492981        1.02515772262369        4.50702589613467
C           -2.68217155281519        2.29679364639109        5.33393372154444
C           -1.16628086299979        2.47268169724691        5.27200719574287
C            1.27746746093622        3.42635123337852        3.06868590013768
C            0.59161585928889        2.91374726448450        1.78635612157625
C            1.59437884863949        4.56313934868467        0.35287685337031
C            2.71767388357613        4.85991530866769       -0.64553123618776
C            2.64330697187778        6.30926693947056       -1.17126203414955
C            3.46289213653403        6.47333185546275       -2.44861436244697
C            3.15612149987177        7.26023763968094       -0.09062390009430
C            3.86607461988107        3.19269799494496       -1.92241180595855
C            3.88843041019799        1.99265302984202       -2.88412418946004
C            4.90841903106324        0.97317780479461       -2.36946875244700
C            4.96009205166809       -0.22883203871960       -3.30402429721485
C            6.22253863270931       -0.41350967604885       -5.35940289859785
C            6.24626006353158       -0.15039040114771       -6.77275892789711
C            6.35644267750032       -0.17590201895593       -7.97448102162546
C            6.23187726809926       -0.34911226544344       -9.41938806658105
C            5.46370478122192       -2.66961416975737       -9.16591517628213
C            3.84762818715159       -0.92098322204274       -9.26602876489355
C            5.88026229394581        0.98611596757266      -10.08969508963802
C            7.57269228063621       -0.84286224951967       -9.98377225190059
C            4.32090429969583        1.15456856586896       -5.21020019218422
C            4.25511968056789        2.39823640889504       -4.31461599890632
C            1.46680697569597        3.65661457048848       -2.39231005374308
C            0.33598481538559        1.40502885265849        1.82631905685051
C            1.62767990552025        0.57212014844422        1.89822368827008
C            1.32368703853577       -0.86143435536396        2.35853622215818
C            1.36720553767874       -1.67063769823879        0.13227226011514
C            1.73101418486978       -0.26001257902433       -0.34389936047783
C            1.10564584617344        4.21115859893919        5.36624578295754
C            0.86535227992105        3.23123325697646        6.51111401292861
C           -0.63029618559088        2.94876856030904        6.62261669787024
C           -2.54044744646811       -2.79557024774375        2.78134622656465
C           -2.63267756461196       -4.08158166151274        2.19901889731969
C           -1.63146081454813       -4.52281816396250        1.34047401848156
C           -0.57173281754827       -3.68390443223074        1.06970332551103
C           -0.46894723338148       -2.40309780955118        1.64188037115797
C           -1.45926634271398       -1.96675269010045        2.50546423805941
F            2.64074695487089        1.36205241126503       -2.91250504310485
H           -8.44542974178496       -2.45816858299988        2.78364565862644
H           -8.67548011219146       -3.08209366268484        1.14726985593950
H           -9.32207587252475       -3.97105955744949        2.54524074087630
H           -6.37001859674517       -3.60026005613024        1.84050054110819
H           -8.59233335800389       -5.20475525239845        0.15578820359550
H           -6.89308559215287       -4.76480336466449       -0.17306258994359
H           -7.35747521255729       -6.47717873334358        0.02616885648104
H           -8.59063807404493       -5.19992418584599        6.40214554902971
H           -6.38192401750111       -4.85052963120856        7.53542496849231
H           -4.43667956313663       -4.19362465451062        6.11612252754986
H           -3.46797681556359       -6.69195841049824        3.04364948509074
H           -5.16055297541683       -6.16636801271051        2.93875257730494
H           -3.26819977263624       -6.81137109853497        0.65360691128675
H           -4.90814187982796       -7.36784399928710        0.96315333851882
H           -4.63120414808185       -5.71795649440678        0.40395385888722
H           -4.49280836587486       -1.68901056639741        5.34970799157388
H           -2.96916611918737       -1.01800269740275        4.75610244538098
H           -6.78363842362232        0.18737246977678        3.27170869521118
H           -6.38947419266553       -1.53781761583802        3.24427962634228
H           -6.57180570347507       -0.69697124234927        4.78653048399939
H           -3.22809060997642        0.21726004507461        2.24489055693451
H           -4.38116331549975       -1.00901827672262        1.72806080955593
H           -4.87397625656587        0.68457296065268        1.81540694376287
H           -4.82304213596621        0.94303226045992        5.54542221408287
H           -5.02563512004976        1.85504019372889        4.03949694970834
H           -0.72368761166391        1.49924476561067        5.00239160336999
H           -1.29027340907178        3.30296641394880        3.37916199854141
H           -0.34431100291118        3.46579443255098        1.63874050645921
H            2.17829031029767        2.60222179930740        0.44800340423404
H            3.66552555072840        4.74385708336763       -0.10274030905295
H            1.59514808991930        6.55723433113067       -1.36875275400780
H            4.47404330944136        6.10201640795703       -2.29176110697639
H            3.01827201138112        5.93264807189425       -3.27922515685133
H            3.51834441659955        7.52534477654004       -2.71442658089912
H            4.20884846565808        7.07084956856509        0.10989194260110
H            3.04170376005274        8.29085886727943       -0.41424006450972
H            2.59548331722206        7.12311767046284        0.83048062073514
H            5.87878429705929        1.46667848216259       -2.31136201359519
H            4.63259865980998        0.65433998176413       -1.36244422104443
H            3.99451056961847       -0.74961195462888       -3.28564277342032
H            5.74628582498993       -0.92143857502815       -2.99937948764927
H            4.64007399124056       -3.32857281880355       -9.43486166877818
H            6.36832299881567       -3.06229405212084       -9.62096690084090
H            5.57988172611031       -2.68743715353523       -8.07093073789785
H            3.78500994720462       -0.72137074704326       -8.18561293525531
H            3.54932984071789       -0.03184945229134       -9.81399768759086
H            3.14614532986307       -1.71672055171197       -9.50891081301099
H            6.74312598130709        1.64580140980833      -10.06166519229441
H            5.60966481381805        0.79916546523672      -11.12526802248350
H            5.05906901634553        1.48635681302519       -9.58483672166326
H            8.28796001798260       -0.02459984070169       -9.99423093165612
H            7.98990454493117       -1.64101839299200       -9.37550126292400
H            7.42560843275686       -1.20032778119581      -10.99915142746688
H            4.65602998902841        1.43424402726437       -6.21009352662071
H            3.31977588431249        0.71093418477470       -5.27799319992573
H            3.51517242830613        3.08794476101371       -4.71953295973449
H            5.22179191730897        2.90089361593227       -4.28119502002119
H            0.90926046940508        2.82437902138335       -1.96719365179312
H            0.87668391710041        4.56136407397159       -2.28390291696733
H            1.62933237177606        3.47037167386803       -3.44923593817284
H           -0.26601475080449        1.17282120616021        2.70502272825507
H           -0.23360778418118        1.11066852117459        0.94527869057645
H            2.33008223490418        1.04468991739341        2.59533209758290
H            0.76936032114815       -0.85701067066750        3.29468477941735
H            2.28504740089731       -1.37765475056350        2.52681137933084
H            2.28924068148317       -2.24635267599762        0.31937366862104
H            0.78734986038639       -2.15916400090303       -0.65006821652686
H            0.83153945970039        0.23860456881853       -0.72093018967508
H            2.46354403768796       -0.31143678607155       -1.14678892601163
H            2.16782525147900        4.36990334298138        5.18070392852619
H            0.61878216595165        5.16610266242911        5.57709444962630
H            1.23501334586333        3.66303073742145        7.43927000241179
H            1.40944135475397        2.30481924109229        6.31854426869130
H           -1.16598743302224        3.85929045905547        6.89190596793007
H           -0.82834032220377        2.19416916559296        7.38305496698340
H           -1.65389055761756       -5.50379744064984        0.89635656034979
H            0.21092483789785       -4.03530964125324        0.41532384573349
H           -1.40126598952867       -0.99085279273461        2.95967823287116
