151
 energy: -221.324049482038 gnorm: 0.003904733972 xtb: 6.7.1 (edcfbbe)
C           -8.30463076858696       -4.67855459748220        4.41727364805671
N           -6.31219353169598       -6.44654576218446        5.32136542369563
O           -7.31176364756255       -5.90760774841722        2.53914982480597
C           -7.06112335543799       -4.95660307714203        3.57350930964867
N           -4.13478875329617       -4.36281177518456        1.96777005324153
O           -3.05105222576849        0.62313128717174        4.60454685790064
C           -8.00096387051432       -5.38763950134685        1.42473469176672
N           -0.89931789078857        3.23761775908834        3.49943144385234
O            7.29856941520792        2.12964672121213       -7.21427665570163
C           -5.95142827684042       -5.53111010181413        4.43338346089251
N            0.38958225937684        3.68974040402418        3.79944801549632
O            3.85180603926419        2.48787711740181       -2.34968398295005
C           -5.39817813440684       -6.97991495066809        6.11136025376636
N            2.17106616653719        3.58960034221002        0.61117608506601
O            1.54045773258835        5.59776968725223       -0.20204683096983
C           -4.06065413201468       -6.61558950470700        6.07874896195325
N            3.43115273371542        4.69584619503811       -2.32941972465990
O           -0.63496197239311        2.64474980245803       -0.81722119172090
C           -3.67408346232271       -5.66477565493791        5.15306527556594
N            5.09461400206578        2.45873720143237       -6.78436962250214
O            2.50570711599463        4.07419590791706        3.16403472000093
C           -4.62267532990715       -5.10989007144653        4.29368274433871
N            6.33638910447039       -3.06723432198118       -7.23377889219225
O           -3.57151060045713        2.58188491057569        3.64334558688142
C           -4.17268789757787       -4.10739943425005        3.32092930451329
N           -1.72028044131084        0.32858749258871        0.31696681159708
C           -4.38469385053829       -5.63941161712043        1.34558762020993
C           -3.10835326718711       -6.47420013265281        1.25996064050519
C           -3.65219414179822       -2.86156965559795        3.58900030044800
C           -3.51138508197966       -2.21438915862681        4.92864994200410
C           -4.57344428612918       -1.14493813890064        5.27920158306191
C           -4.42569893575573       -0.78745303157657        6.76055006443252
C           -5.98033467466934       -1.67767948532746        5.01534280905945
C           -4.38570151758461        0.12378714596407        4.43759361251627
C           -2.77066445436748        1.82931131735766        4.15231879980672
C           -1.31125511583909        2.16927315721656        4.40457213476101
C            1.36685410319146        3.71717275754882        2.88022174114833
C            1.00456523812191        3.35758597268795        1.43353197114333
C            2.35866224322837        4.68826634211795       -0.12317916537411
C            3.68679404688297        4.70372800205133       -0.88912721112717
C            4.56123212288108        5.88694792182817       -0.44041975552841
C            5.90080205354795        5.87251149665951       -1.17193736410232
C            4.78678249919478        5.79055429224885        1.06795907975421
C            3.59789215836701        3.52833439580997       -2.96324453843194
C            3.66263698359625        3.47258438763272       -4.50363750049557
C            3.49990603285499        2.03250058016089       -4.99595573436617
C            3.77643587973802        1.94542735739895       -6.49838219831445
C            6.14895512867779        1.69604686175981       -7.12389501777773
C            5.84965094279485        0.32247822367801       -7.44093331357179
C            5.76998401785480       -0.83663142080140       -7.75741587805142
C            5.56932844265018       -2.22622711110760       -8.16282514611283
C            7.75924164824453       -2.78956457312333       -7.23708341120407
C            6.08437892359730       -4.48937774032876       -7.33769421680618
C            4.06598049466069       -2.52014052141838       -8.04146454788433
C            6.00018576814400       -2.34493917671896       -9.64074410918071
C            5.27000540953463        3.84498929204672       -6.42030392224562
C            5.02101154745223        4.04823325139453       -4.92412460825637
C            2.91540370484448        5.92473145809915       -2.90045841908153
C            0.53426830411000        1.91694131389808        1.23163728260923
C            0.20260172889289        1.64821940324044       -0.24841173947872
C           -0.45815337013004        0.27058219063582       -0.38998034565455
C           -2.60602847199708        1.28563932942840       -0.31810408707323
C           -1.94258413618596        2.66201091436157       -0.26710236880786
C            0.62987113983096        4.12245285233892        5.16983382068557
C            0.28813160741345        2.99029459109355        6.13420436130279
C           -1.15138375736314        2.54430711428561        5.89120526443046
C           -3.24492745804502       -2.32463186500717        2.33357389823348
C           -3.55495875851770       -3.29341979849826        1.34590314522014
C           -3.25871709759810       -3.07446628894966        0.00420052594888
C           -2.65830344053462       -1.88404525873791       -0.34486313588995
C           -2.33241248666236       -0.92434107576391        0.62430582134416
C           -2.60788907350455       -1.14641727477845        1.95575894009001
F            2.64945943874912        4.22060342434259       -5.11451583160133
H           -9.08830819654987       -4.23362897840421        3.81089709380588
H           -8.65890096694085       -5.61240682936027        4.84241808799174
H           -8.05427427328754       -3.99276414723130        5.22043727452513
H           -6.70353931374554       -4.02306983183556        3.11069812601185
H           -9.00111557650579       -5.03683030291576        1.68971749092843
H           -7.43932897148256       -4.56193219541289        0.97143518875638
H           -8.08378148320003       -6.20827721448003        0.71603705444046
H           -5.76307410250529       -7.72538367437191        6.80446490738457
H           -3.34936334517593       -7.06432031907361        6.75269825023792
H           -2.64339418201765       -5.35005945612663        5.07621233871882
H           -5.14207865847221       -6.17258695370538        1.92382893450646
H           -4.78186780905116       -5.45926849259963        0.34342109248863
H           -2.34640757029062       -5.94488097671238        0.69253691655384
H           -2.72270274498541       -6.67427527316638        2.25698337748198
H           -3.31912954492647       -7.42065080038627        0.77172157543454
H           -3.56773807759547       -2.99061429268493        5.69378240569576
H           -2.52914430339976       -1.74252702481067        4.98927473446753
H           -5.13159247189692       -0.00773565427718        7.03674583171975
H           -4.61887896730137       -1.65960907505047        7.37913684836127
H           -3.41921390991532       -0.43204543780618        6.96485596064198
H           -6.72921892138313       -0.95907269448841        5.33861676581017
H           -6.12332422340355       -1.86892713423299        3.95509779306906
H           -6.13031071863682       -2.60727451395178        5.55764802860885
H           -5.09164979458143        0.90275638855189        4.74251548743883
H           -4.54411177917527       -0.08556401914318        3.37546577631521
H           -0.69865853459621        1.28729727018795        4.19131649632252
H           -1.57314191903788        4.00383124747212        3.55636850195568
H            0.23568990861541        4.05867195216620        1.09051100669925
H            2.92027632035201        2.91984302738132        0.69948875815345
H            4.22709510467735        3.77521728903569       -0.68054841895965
H            4.03244332905228        6.82003130201613       -0.64996600394324
H            5.77400574618920        6.00712194109414       -2.24207271245389
H            6.53349124162446        6.67228645781890       -0.79826361241346
H            6.40796536589177        4.92485318233328       -1.00571365598935
H            3.84337207499436        5.79717594591628        1.61013230285294
H            5.31066456514375        4.87157111268425        1.32024196326355
H            5.38273595482515        6.63248881292544        1.40831927166996
H            4.19164158274142        1.39930758890206       -4.44155628644883
H            2.48340722292783        1.70150785720794       -4.78249948449787
H            3.04307410295329        2.55107156979974       -7.04036178144900
H            3.70959044170987        0.91060363288932       -6.83287068732020
H            7.92393399729370       -1.71323673224261       -7.21741779625109
H            8.19473893243735       -3.22005055964160       -6.33530602829346
H            8.28227714843403       -3.21299784717909       -8.10759059447170
H            6.71553680118354       -4.99337985201541       -6.60625101388441
H            5.04731777108597       -4.70404412915530       -7.09267762946642
H            6.31687591033498       -4.90790131329909       -8.32927738040933
H            3.77898551857664       -2.55335024627578       -6.99429922559685
H            3.50484392280188       -1.73012877934138       -8.53458797659993
H            3.82007169278882       -3.46439418706430       -8.51746163361397
H            5.35664875983918       -1.72554902663690      -10.25915214383957
H            7.02652520189370       -2.01113291995750       -9.77182315053190
H            5.91480890553782       -3.37677824368112       -9.97193139876365
H            6.29080027198789        4.13513893088372       -6.67532330846851
H            4.56161261991426        4.44839535579957       -6.99599328724309
H            5.05290390636416        5.11307861884262       -4.69780391185289
H            5.79325531080475        3.53933958796194       -4.34500772980763
H            3.72390584698583        6.57305269046512       -3.24005060509405
H            2.24239954495568        5.72403904091160       -3.72510974592126
H            2.34412125320650        6.43417085422187       -2.12697844708959
H            1.31968294995001        1.22673473888586        1.53831573165221
H           -0.35815639665854        1.73279286073448        1.82369768331227
H            1.11418420838497        1.69390933049194       -0.85479722991196
H            0.16974075572299       -0.49808772274282        0.06038118813047
H           -0.58204960422969        0.04841194050430       -1.46472544347961
H           -2.81833117065408        1.01461345767568       -1.36854541298638
H           -3.54660356090451        1.31984959013060        0.23455289126725
H           -1.91800916145744        3.01013018411310        0.77263388870630
H           -2.49590630105434        3.38070896117557       -0.87332902507957
H            1.67879357987916        4.40975663595870        5.23930547512311
H            0.00162091185410        4.99676096430891        5.37289881893996
H            0.41105904038231        3.33579244639112        7.15946302717560
H            0.96822806771987        2.15443999626909        5.96489475974761
H           -1.84054563765206        3.35688271536464        6.13410747521518
H           -1.40012449335520        1.68214470545505        6.50841633738460
H           -3.48723098810689       -3.81125119535932       -0.75091622074800
H           -2.42266581866015       -1.68678426620109       -1.38058299770411
H           -2.30544081025574       -0.40838822092562        2.67766369703891
