151
 energy: -221.322822997990 gnorm: 0.003174903236 xtb: 6.7.1 (edcfbbe)
C           -8.94664723144734       -3.50748001970887        6.64895335402405
N           -7.14837043081710       -5.62543521121855        7.18581385352955
O           -8.81706858890132       -5.15314062211865        4.82181053519904
C           -8.10618629319095       -4.14798495613455        5.54531414943882
N           -5.69531132909747       -4.08831714484886        3.18092278012015
O           -2.95688526315876        0.55466237641895        5.10852294969386
C           -9.82661307328416       -4.66793962237613        3.96503719690233
N           -0.69162623442911        2.52261364350961        3.15959904924623
O            5.16557777753036       -1.38560943444611       -8.80994182968331
C           -6.90095997635968       -4.85316845262847        6.13709151438374
N            0.70280724901586        2.63183041613671        3.08895693772118
O            3.84053974723194        0.68450977808069       -3.34977777669616
C           -6.15830711827373       -6.29216879596092        7.74989572597778
N            1.64204852630477        2.05571790697762       -0.39826331805487
O            1.65438078155517        4.25003788345950       -0.92418726356503
C           -4.84767012665582       -6.22547426987194        7.30204982497847
N            3.10963058333354        2.81296056278008       -3.26888909796959
O           -1.89717131521747        2.20503704253228       -0.71072662494246
C           -4.57913549924688       -5.41824620286082        6.21297831299392
N            4.57945731127866        0.59735892699020       -7.87553779922873
O            2.62737734680142        2.42416173550291        1.96731016838820
C           -5.61546208118050       -4.71227795918329        5.59977760423665
N            9.95989239785478        1.24015344204356       -8.28640508523524
O           -3.35569174456855        2.44269042605124        3.96175075108330
C           -5.27938905143297       -3.83791461617159        4.47051416963066
N           -3.00718415877589        0.03340585226612        0.66220104948002
C           -6.34642948213997       -5.29625006441681        2.73723132103733
C           -5.32431668118388       -6.37397868227229        2.37929803848534
C           -4.46771239899474       -2.72687237709906        4.50722655179928
C           -3.80411355286231       -2.13518087778775        5.70881868390777
C           -4.48321601746132       -0.88011141766147        6.30645507854924
C           -3.79561137412896       -0.54135958378137        7.63157423935977
C           -5.96749276321657       -1.14474954470366        6.54778471622769
C           -4.34923921139487        0.32033750227332        5.36026264135206
C           -2.59745062745437        1.60487740398978        4.39508933880444
C           -1.08429990559380        1.63182469824765        4.24807719745877
C            1.39987665245276        2.38675563157657        1.96798450392346
C            0.64422900074030        2.15052656270894        0.65047153719084
C            2.15238093426052        3.13380838100305       -1.00742215022413
C            3.41186368357050        2.85995656970134       -1.84035558729461
C            4.48627202930653        3.91619901973968       -1.50960130777871
C            5.69634715975128        3.77014770620024       -2.42826874981213
C            4.90663399845579        3.75220469747454       -0.05084221896685
C            3.42356751347405        1.69037478777562       -3.92746101864917
C            3.39768569033079        1.64547906175086       -5.46675756159729
C            3.11093415464727        0.22390643128359       -5.95667450714298
C            3.26981919274110        0.13624064552000       -7.47424519549901
C            5.44118800648100       -0.22315169412287       -8.50107177649593
C            6.72228504016739        0.35354968321440       -8.82127922777343
C            7.82743080490472        0.71770743279690       -9.13028909172345
C            9.12323695304001        1.28931359355796       -9.49374236950334
C           11.18640739811622        2.00828273199048       -8.34525428618344
C           10.22034914460689       -0.10788907645665       -7.82033015622907
C            9.68807398368193        0.51097987810478      -10.69915082331205
C            8.85047448243857        2.74520406992149       -9.90596891349945
C            4.86710056909099        1.95805096726674       -7.49052419448846
C            4.77051899909752        2.11174694785770       -5.97107697918199
C            2.52120738230087        4.00175737925389       -3.85555411964934
C           -0.26110153582919        0.92265225154197        0.61559943039091
C           -1.20422965260325        0.97097926575199       -0.60158181861047
C           -2.21740072735088       -0.18163162037307       -0.52947001085479
C           -3.77711563893915        1.25837803599692        0.54423230953923
C           -2.81384967909354        2.42941340993153        0.35013308285241
C            1.38483965196837        3.05277647386736        4.30802319888646
C            1.04189048367617        2.10715350575713        5.45399717136214
C           -0.47500164935379        2.03911807210400        5.60353981624858
C           -4.35564279182319       -2.27521665676743        3.16027368709090
C           -5.12402185694584       -3.15640734016127        2.35871740212209
C           -5.19367892371213       -2.99388130024063        0.97862029385234
C           -4.50424662000214       -1.94611307611218        0.40500165521040
C           -3.73362611874400       -1.07225292377459        1.18550233456770
C           -3.64531022589081       -1.24660309515972        2.55070720380792
F            2.41649039227789        2.47497170276870       -6.01638096349707
H           -9.29407349060507       -4.28359382188833        7.32398036285144
H           -8.33678147510104       -2.79938547489734        7.20119246245125
H           -9.79802884111774       -2.97907974962729        6.22967840886235
H           -7.76824904336479       -3.37509291528024        4.83551633941637
H          -10.22229331378239       -5.54231211885005        3.45257822717812
H          -10.63226283738643       -4.17913391639851        4.51859374543835
H           -9.41212302948063       -3.96450343474480        3.23285926237029
H           -6.43387347394275       -6.90196411033667        8.59904042365536
H           -4.06737945300109       -6.78666894131087        7.78978459539717
H           -3.57669902854010       -5.33282134417715        5.81922504000043
H           -7.00330977681355       -5.65677773123740        3.53184712108410
H           -6.95857486024037       -5.05586945610847        1.86491082773966
H           -5.83493287080665       -7.27321904639713        2.04909376765455
H           -4.66908859840187       -6.02608245898167        1.58397829847858
H           -4.71694248688876       -6.61699733844401        3.24803730840374
H           -3.77339478915944       -2.89170454085807        6.49481855654370
H           -2.77820440499119       -1.87045848250941        5.44730186915297
H           -4.23762196589580        0.34941517397569        8.07154841080356
H           -3.90474565906357       -1.36211474280448        8.33469571728809
H           -2.73649549497395       -0.35968291172129        7.47090251926387
H           -6.47640217267679       -1.35539750927968        5.61079833555111
H           -6.08281027038188       -2.00426603092016        7.20343014858376
H           -6.44110881367445       -0.28435378994409        7.01327647769536
H           -4.78547455952889        1.22144413124776        5.80194968853896
H           -4.85021724801416        0.12754200084232        4.40734658166893
H           -0.74243448268160        0.62232656945746        3.99452601908672
H           -1.11371815526215        3.44149665632567        3.30742261787163
H            0.05345213155719        3.05125959240336        0.44451550756702
H            2.16453580112318        1.19197484218389       -0.43146989522163
H            3.80646145842584        1.87137454213443       -1.58710240210443
H            4.04621803727956        4.91023561604395       -1.63263343430028
H            6.50408215813461        4.40358621560357       -2.07352888749375
H            6.04151890910619        2.73831926649944       -2.43387258980486
H            5.45684730951122        4.06002618030168       -3.44697971148402
H            4.04736420238536        3.81167569807775        0.61341593247602
H            5.38069216978244        2.78592224440766        0.10312385652285
H            5.60947231912501        4.53320666468990        0.22550127348640
H            3.80179870425827       -0.45310340265089       -5.45519929138975
H            2.09366355814535       -0.05248067669759       -5.67830268416266
H            2.51160590410213        0.76072786466648       -7.95897768829571
H            3.15681368232639       -0.89548834013851       -7.81126540290146
H           11.67190047012640        1.92954237012406       -7.37370311564042
H           11.89346983206086        1.64957285559502       -9.10896816491363
H           10.96482745087319        3.05622383963656       -8.52771847015498
H           10.56522871861546       -0.05447714271722       -6.78765696384816
H            9.30045861468802       -0.69003385454594       -7.84731454240397
H           10.98816852043098       -0.62889453595194       -8.41191014289515
H            9.04172520025101        0.65345169705854      -11.56078907924191
H           10.68234931763486        0.87675261008584      -10.94416763414735
H            9.74244747662599       -0.55357166283709      -10.48475160667216
H            8.59870051119965        3.33758402897618       -9.03057378246771
H            9.71759479739701        3.17318884549559      -10.40015405832082
H            8.01273571615731        2.76996662826354      -10.59855580193257
H            5.86731307680634        2.22614116784130       -7.83034381810031
H            4.13183100333141        2.61666090043262       -7.96589033359727
H            4.93061780505101        3.15583097333983       -5.70355902272874
H            5.52966335874894        1.50161473189845       -5.48102397908042
H            2.33991020282789        4.71799989519665       -3.05959211466892
H            3.17889702175341        4.44784778592753       -4.60063807989123
H            1.56395912697575        3.77035800610749       -4.31974136779955
H            0.34358787422250        0.01847895269535        0.55267695259536
H           -0.86846987214926        0.87992924016133        1.51566899253585
H           -0.62398404891827        0.91189336975786       -1.52805683135691
H           -1.70155523655460       -1.13888889593481       -0.45093343146652
H           -2.82352547875652       -0.17209630116417       -1.45300409527637
H           -4.48278696006876        1.20912940021163       -0.30523020695417
H           -4.34308598124787        1.41743379890884        1.46393628073487
H           -2.27647227303347        2.60868711466024        1.28757190645245
H           -3.36008423781655        3.33136535151820        0.06999020529582
H            2.45339593150732        3.05743332724806        4.09547123254347
H            1.06015009102579        4.07161484754837        4.54708358717583
H            1.50123999156437        2.46814651171243        6.37297295485083
H            1.43646507260267        1.11413604316423        5.23511897788173
H           -0.86733387239466        3.01636601041890        5.89560908132384
H           -0.75927487425223        1.31085245895656        6.36160663600206
H           -5.77281021600929       -3.66563067343998        0.36331277724684
H           -4.55213227225548       -1.79773881716707       -0.66383128562655
H           -3.00643568029223       -0.58685970704784        3.10944109093402
