151
 energy: -221.333199815252 gnorm: 0.005004347956 xtb: 6.7.1 (edcfbbe)
C           -7.13472179890698       -4.22346057485218        1.75324741316681
N           -5.79762224026960       -6.32351971354934        3.05260035916576
O           -5.73466553878794       -5.49011854484802        0.17697359698444
C           -5.72903190586543       -4.64267271637057        1.32356039452568
N           -2.57254486186998       -4.36528858528021        0.72220881617059
O           -1.89194060382849        0.38803761755019        4.02217692649816
C           -6.05148948333737       -4.84626932430806       -1.03658298322803
N            0.18870547068160        3.19252202332517        3.34216790653110
O           -0.77441893668624        0.32556707176015       -3.95878577717636
C           -5.04467889363654       -5.43092006658185        2.42648277687239
N            1.39098500474471        3.73624232155990        3.80971603033553
O            3.96971765768806        3.02918237731864       -2.40498702396411
C           -5.27306632841222       -7.04408775390833        4.02668378848527
N            3.17313793946202        4.25916407994559        0.64939387243140
O            1.92580136716709        5.96722541741297       -0.12723831080547
C           -3.96012892502910       -6.90733713926851        4.45126399027441
N            3.24168574682603        5.14321572672319       -2.58613121239552
O            0.91159974326649        2.95596247022531       -0.91058664606248
C           -3.16346081355416       -5.98288995173900        3.80065495114255
N            0.82801485344017        1.29337129946860       -5.24711883396931
O            3.47819361442795        4.44635763389771        3.35713967178893
C           -3.69589952097452       -5.22884623274451        2.75637280490226
N            3.14310497101563       -3.71316205085462       -4.62552823924064
O           -2.41105688978102        2.36432589399003        3.10334323702258
C           -2.86540947107339       -4.23950760528875        2.06322483639829
N           -0.07249739843645        0.49247827304349       -0.02698610259909
C           -2.67311108679168       -5.57703037278938       -0.05311133626655
C           -1.36291806418898       -6.36125444778837       -0.01009287900900
C           -2.34684790209960       -3.06403520249776        2.56048479387097
C           -2.37318622362382       -2.56281462569779        3.97011745082972
C           -3.43889584547175       -1.49523967797906        4.30913562792174
C           -3.43919282686792       -1.28190207061443        5.82543569941413
C           -4.81987199590258       -1.96581785978800        3.85154229133964
C           -3.15912322564416       -0.15650730986060        3.61340120422777
C           -1.63758229076691        1.64006539670889        3.69208808182877
C           -0.27125066771702        2.09176216553750        4.18491899271040
C            2.41265657185710        3.98242056931896        2.96873549089973
C            2.13765741507414        3.70097487828797        1.49223973299146
C            2.92449602560962        5.26182025245464       -0.20404975977436
C            3.95171666932461        5.43091795321700       -1.33126214921219
C            4.65503043943917        6.79311163645195       -1.28400102744012
C            5.59299373049409        6.95578591419514       -2.47809722046673
C            5.44581800625565        6.87492856189840        0.02201764864434
C            3.29202899062332        3.87296152749225       -3.00104074592431
C            2.51871259344209        3.40827177147157       -4.26058069239433
C            1.00671481557152        3.38114010403564       -4.01494891943725
C            0.25858654708973        2.61527660420637       -5.11136581227806
C            0.33157367031738        0.28373667154805       -4.50362713048284
C            1.17699077651831       -0.87051202329064       -4.34441342914319
C            1.79158218056176       -1.81324418424131       -3.91069012303139
C            2.62968426840660       -2.93559768183751       -3.48722560388924
C            3.88565951216944       -2.92237099024709       -5.58906866597013
C            2.13942638125136       -4.51104365319937       -5.30620750477126
C            3.80709333933291       -2.35872260670381       -2.67994943381728
C            1.80139008072597       -3.82697940941228       -2.54902855543404
C            2.19538433497672        1.33666050207995       -5.70700904655749
C            3.06457825026984        2.03232064760647       -4.66179839688338
C            2.33530101361485        6.15697486686510       -3.08119898152577
C            1.97873139163355        2.20955697458483        1.17826050756809
C            1.78108109043081        1.99042216968698       -0.33225950389654
C            1.25056547532341        0.57898993280709       -0.60491823038801
C           -0.97253834362122        1.42533423794356       -0.68738277082433
C           -0.43342384164864        2.83560309707104       -0.47222713764513
C            1.42568150944456        4.16561270868132        5.20056591228721
C            0.98789130863939        3.02719179540958        6.11854267788545
C           -0.37387773136718        2.50316980403751        5.66585098735361
C           -1.70979604452377       -2.42114902438166        1.46082565145479
C           -1.87126880978651       -3.26099427423408        0.33167692403485
C           -1.39725254110276       -2.89021231861870       -0.92221769590005
C           -0.79524927748653       -1.65834109989242       -1.04969266391145
C           -0.62423673503977       -0.82294359170501        0.06304299583264
C           -1.04303166431304       -1.20856016686982        1.31642270283636
F            2.78937601650262        4.29370157041133       -5.32115159947160
H           -7.61973556258424       -3.65217451602868        0.96659449696905
H           -7.71802946687740       -5.11129899023285        1.97391917768869
H           -7.06991639117099       -3.60575324691745        2.64370426467971
H           -5.13009764458440       -3.74563936654785        1.09249419053169
H           -5.41433892389211       -3.96829966807983       -1.19336372177844
H           -5.86419689739142       -5.58019851149291       -1.81794398762399
H           -7.10033908992231       -4.54011071301953       -1.07486537916937
H           -5.94203113375316       -7.75903908735125        4.48642960399515
H           -3.57583208930206       -7.50858025334598        5.25848343461214
H           -2.12949705625167       -5.84674128010999        4.08109151287013
H           -3.49238077232684       -6.18116372450286        0.34046352379367
H           -2.91446170891672       -5.30707462238762       -1.08431566215987
H           -0.54527706317468       -5.74898508547892       -0.38411205477067
H           -1.13524482929393       -6.65848388408891        1.01061021641097
H           -1.44454174129883       -7.25328437687362       -0.62402808386811
H           -2.54611377292463       -3.41021322136315        4.63540516087884
H           -1.39268092379082       -2.14054628744658        4.19855253916357
H           -4.13918987792824       -0.49678004167679        6.09812228850962
H           -3.73323765200504       -2.19601479541318        6.33258308182709
H           -2.44768663869389       -0.99707973282935        6.16612631790144
H           -5.02555453420842       -2.95784119921094        4.24599083856189
H           -5.59209329754566       -1.28488338225196        4.20023227193631
H           -4.86462258655985       -2.01180847953434        2.76681831664531
H           -3.93872427560594        0.57123736769521        3.85992068276589
H           -3.14259722882003       -0.28015462130534        2.52655760023756
H            0.43828408748091        1.26401511503292        4.08615442579163
H           -0.54373248853706        3.90357464835940        3.29376732034183
H            1.22229622260820        4.24352601866872        1.22995632872968
H            4.02027249397941        3.71995014378076        0.55789253571262
H            4.71506979844569        4.65190584305034       -1.24435518900027
H            3.90420365691583        7.58777109830053       -1.27524935238022
H            5.05772598592063        6.89456083915625       -3.42154819442671
H            6.09516960623728        7.91757280047785       -2.42740551453486
H            6.34651902875188        6.17155695795962       -2.46685191999679
H            6.20740869698031        6.09918916467010        0.05476284295101
H            5.93537873272121        7.84153893539327        0.09960358786768
H            4.78979845889976        6.74896777375969        0.88052613953712
H            0.83935316157305        2.90467288731738       -3.04782926307553
H            0.61481625230392        4.39417855539611       -3.96066732927004
H            0.34834735427301        3.13244406303326       -6.06898468452918
H           -0.79395306894153        2.51562488533625       -4.84316993438701
H            4.69119010700298       -2.38512588444687       -5.09829706638777
H            4.32798380880335       -3.60118635713311       -6.31660657849992
H            3.25233383706227       -2.20065406430792       -6.12805320394023
H            1.30811088756331       -3.90864613797163       -5.70459792752144
H            2.62167757323872       -5.02086989031886       -6.13813692961154
H            1.74314984200223       -5.26814758486525       -4.63596655486056
H            4.51208390922320       -3.15657394560913       -2.46701082221078
H            4.31585026963295       -1.56194367060666       -3.21464242082328
H            3.43799321107992       -1.94497990756965       -1.74522901248355
H            0.85215213099309       -4.10241350774376       -3.00010793031067
H            2.36667912771193       -4.72328327394335       -2.30985384582154
H            1.58413614992786       -3.28507723441562       -1.63090537306841
H            2.56077096946343        0.32303348203331       -5.87584486269694
H            2.21589440646743        1.88954012019255       -6.64952857258950
H            4.08131792284795        2.15878297301264       -5.03310163841235
H            3.10575555546879        1.42062446822492       -3.75915736797428
H            2.08723971426752        5.98268518645392       -4.12166341177617
H            1.43135199578890        6.17499235757098       -2.46817177108904
H            2.81420863825023        7.12870771504461       -3.00640507552131
H            2.86755746685021        1.66635926159493        1.49659447630307
H            1.10928686211179        1.81886102443213        1.70221211137357
H            2.72611832906911        2.13353056547395       -0.86616180026453
H            1.89535426150650       -0.16001143820939       -0.12686148761072
H            1.25145760965007        0.39803384765457       -1.69512198906989
H           -1.06623481508329        1.20998463424736       -1.76600475399550
H           -1.95929926432285        1.34505826526754       -0.22765065926062
H           -0.51645256314939        3.08832179717643        0.59040499841806
H           -0.99427613597387        3.56341363183157       -1.06060803884907
H            2.44460974495936        4.48800683225781        5.41248366969311
H            0.74816820408075        5.02033038590613        5.31591267356894
H            0.93136641779217        3.39530705135558        7.14197646507010
H            1.72278173814493        2.22262763912966        6.07783676394271
H           -1.12887498938231        3.28701889854004        5.76592085230305
H           -0.67982914096703        1.64753083035696        6.26590117995143
H           -1.52332171473909       -3.52666105782698       -1.78465775766323
H           -0.46913471101125       -1.31805923326055       -2.02158350430192
H           -0.85775422234726       -0.55326745840016        2.14966013462001
