151
 energy: -221.317026274071 gnorm: 0.008710093041 xtb: 6.7.1 (edcfbbe)
C           -8.61499959354203       -0.76651247497723        7.32566447966218
N           -7.89415591639594       -3.38769001127470        7.98955461763109
O           -9.55249294537942       -2.36676265316152        5.71087238143765
C           -8.35200390763110       -1.80273715280323        6.23319086876385
N           -6.86285616609197       -3.27866230942394        3.59095318462647
O           -1.25532558810334       -0.83504519838913        5.24830011200101
C          -10.33842132248269       -1.47969998448507        4.94466057076534
N            0.81594282593671        0.29787938511070        2.58911486243995
O            8.27003172704657       -0.21848591901355       -5.13406517434451
C           -7.55010122009219       -2.96828620682248        6.78079272860357
N            2.05184653455390       -0.00774841302541        2.00514369822619
O            4.24985229967432        3.41301947338704       -3.22701200293063
C           -7.24499342109848       -4.40049745989765        8.53463289326694
N            1.27204922790678        1.00187173936645       -1.26882585204466
O            0.95238286239221        2.87217129230997       -0.05091809575586
C           -6.19451471668842       -5.05233464338656        7.90727256539092
N            2.22246872561739        2.45280462627002       -3.44806820761675
O           -1.34555162211237       -0.15935186328210       -1.89712977064952
C           -5.82735544941608       -4.61880481088161        6.64710432529328
N            6.91808522356452        1.57478938355094       -4.81738311883264
O            3.28784231632456       -0.26497346345377        0.14136905412310
C           -6.51434161921597       -3.56283515321747        6.04755435918233
N           11.43049324866741        2.26020844486073       -8.38799050520622
O           -0.83631631043398        1.26936075483077        4.56993747395091
C           -6.08271048985123       -3.12320735907634        4.71599471027107
N           -3.27609836885173       -1.52637823857891       -0.22840033748962
C           -8.05882443507420       -4.07798597348862        3.50305949578387
C           -7.72121245877192       -5.54864236891209        3.24996854174764
C           -4.86300334773664       -2.58378325993647        4.37826158211363
C           -3.71978401812609       -2.22954168628814        5.26966475095709
C           -3.67912094868387       -0.75090169801580        5.73042881682120
C           -4.62984109972647       -0.54923471370857        6.91093024636329
C           -4.06127555294602        0.22224726730108        4.61433294289849
C           -2.24818121557886       -0.43559655186693        6.20742580998597
C           -0.62837251030686        0.07506265658487        4.52908152072890
C            0.49461230096623       -0.55957292259626        3.72212657755679
C            2.19659884541318       -0.07410187607448        0.67438444685528
C            0.93736329665885        0.11415263656061       -0.17521190081230
C            1.30579063225884        2.33169665551044       -1.09754307226067
C            1.78056237648093        3.18771090061251       -2.27119092820637
C            0.74559257928193        4.30897860757794       -2.53989679852964
C           -0.65229748990713        3.80516683177188       -2.90645321334568
C            1.26804218896616        5.27869574411349       -3.59660828776404
C            3.48467193960809        2.67891907177354       -3.85379423850018
C            4.06515181736987        1.94638835460542       -5.07460303615695
C            4.69301989244609        0.62242303972363       -4.60985160510059
C            6.03511160947844        0.86990956139270       -3.91840815389633
C            7.92520660038695        0.93018257783814       -5.43075250183158
C            8.60598217532663        1.63637821775919       -6.48392092593742
C            9.20377515651392        2.00217449357620       -7.46534867949272
C            9.98776214726721        2.45157622850333       -8.61612902993694
C           11.98056868943226        3.12003812845310       -7.35311410754957
C           11.80063978236876        0.87644410779280       -8.13861880513683
C            9.54649383930540        1.62568561589600       -9.83862179484850
C            9.68303915762697        3.93104444467320       -8.89886462067543
C            6.44726844692911        2.89315469275779       -5.16258562813872
C            5.08289660576057        2.80268075384463       -5.84605418225617
C            1.24685155499961        1.64566771348706       -4.16376130703170
C            0.46956705069406       -1.24042907790661       -0.71419984351448
C           -1.02079265719260       -1.27835990938564       -1.07944968306722
C           -1.89913058887557       -1.34361417647657        0.17087076004365
C           -3.65871433502356       -0.84363501382254       -1.44908893245673
C           -2.67936019775097        0.29454106758307       -1.73865538236642
C            3.20599066843696       -0.10982916745617        2.88651468310890
C            2.91967581554806       -1.15669687517845        3.95679666967919
C            1.66260286539248       -0.74361808198870        4.71509596145972
C           -4.87291241930043       -2.41698213204209        2.96230276452816
C           -6.12941695049588       -2.87034666926116        2.50460103789253
C           -6.43479568583867       -2.84363020705223        1.14907124622970
C           -5.48475827982322       -2.37077463940249        0.27195187524431
C           -4.21872160808170       -1.92287592833451        0.70639310122971
C           -3.91830793538367       -1.95379715166036        2.06036120912717
F            3.07324815871923        1.64569575987071       -6.02073503550681
H           -9.10430104381066        0.11159212499413        6.91350796550760
H           -9.24281793128237       -1.21174414726721        8.09130578258253
H           -7.67361937851485       -0.46490069255225        7.77490938296586
H           -7.79392242297104       -1.33814799509586        5.40125198068793
H          -11.10158151090217       -2.09358149828415        4.47076259853949
H          -10.81950776621391       -0.72359076988700        5.56892334200952
H           -9.73169586482600       -0.98753702958903        4.17714916633334
H           -7.58222226724305       -4.69193404377572        9.51982560915735
H           -5.68592587641537       -5.87156140488128        8.38925936814590
H           -5.01878264062975       -5.09440071108536        6.11026395985462
H           -8.62454811087167       -3.97454707026748        4.43224478577020
H           -8.66721499269772       -3.68758058313673        2.68212042326054
H           -8.63475321092361       -6.13003196592553        3.16900791608315
H           -7.15343921662925       -5.65025475000189        2.32760662588210
H           -7.12577744526154       -5.94385705852033        4.07086017258896
H           -3.73543921411478       -2.85818672156876        6.16184057735643
H           -2.79929052323007       -2.44078137706629        4.72251158552345
H           -5.64642194730797       -0.76905243373870        6.59674651158872
H           -4.37632667914082       -1.21167666112965        7.73608384810607
H           -4.58886288667657        0.47774536334718        7.26605624617427
H           -3.36057598954490        0.17067342088819        3.78542547094271
H           -5.05418338720710       -0.00289444988654        4.23437280903357
H           -4.05666558165162        1.24238230158118        4.99299638391352
H           -2.01278950108833       -1.00693776934650        7.11030074163712
H           -2.13875072223511        0.63521445897516        6.40359445970541
H            0.17747468793673       -1.53428955127358        3.33865763639484
H            0.78876195933574        1.27667615521275        2.88708459906112
H            0.17135066892768        0.60437194961627        0.42787315186156
H            1.78429571228823        0.57905204784844       -2.03175257774105
H            2.68344923278373        3.69237944389352       -1.89787308728629
H            0.67032445946988        4.83343171894974       -1.58113130763321
H           -1.37225723945899        4.60384980753255       -2.73876703499259
H           -0.70665183152335        3.52155582877459       -3.95306470569949
H           -0.93758638615728        2.95873168284176       -2.28484421615239
H            0.57787033408118        6.11098210703679       -3.70714722225042
H            2.24392053785914        5.66966532881070       -3.31194145012771
H            1.36737352036138        4.78311881948428       -4.56096764196001
H            4.02593405718600        0.10007948313620       -3.92437578792166
H            4.84819335608033       -0.00312341292434       -5.49161744813567
H            6.50357457786842       -0.07864961313563       -3.65062029458469
H            5.88953197175906        1.47384212973429       -3.01783736325449
H           13.04285008310686        2.90066812032426       -7.26049714083969
H           11.88044789291179        4.16341664957105       -7.64135974216892
H           11.50745925891880        2.96647592739724       -6.37057088732247
H           11.31613431227972        0.45463969490123       -7.24264436842833
H           11.54967150944904        0.25817481261910       -8.99807823730581
H           12.88005236104917        0.83395859632218       -7.99895862105856
H            8.55260002900607        1.93369231156496      -10.15023692724804
H           10.24639496126248        1.79817629085454      -10.65101308810157
H            9.51118624951972        0.56387942178016       -9.61100109570032
H           10.37284275877823        4.29788820056291       -9.65447719443608
H            8.66602348279005        4.02629994333796       -9.27082223146506
H            9.76995552196181        4.53605215880297       -8.00064828782499
H            6.35357876119178        3.47683557745852       -4.24266649848012
H            7.16352520246672        3.37265349501497       -5.83053474784851
H            5.20143436424508        2.33195687829835       -6.82429917430741
H            4.67738865725067        3.80432463406426       -5.98715617433319
H            1.67731719414521        0.69577347491285       -4.47796238751931
H            0.40211094674110        1.44522870992782       -3.51312202704677
H            0.89620691747955        2.16710207629333       -5.05570548671070
H            1.06669304877798       -1.48243286721009       -1.59240180257154
H            0.65139496031428       -2.00804153386650        0.03685067425220
H           -1.20074788789135       -2.19636567063485       -1.66270281128732
H           -1.74776489108812       -0.43540101583196        0.77872951068887
H           -1.59501702606751       -2.20967894199277        0.76517706237874
H           -3.65564497319612       -1.54201412363873       -2.29817521029218
H           -4.66287740914448       -0.42390394061539       -1.34394824955897
H           -2.72828012714061        1.03773552605024       -0.92972536733747
H           -2.94006760049458        0.78507645050833       -2.67865630522029
H            4.05936615408154       -0.37998929123789        2.26476684639738
H            3.38967653338708        0.86811918640640        3.34563442060968
H            3.76610684071812       -1.22770387587153        4.63750402501552
H            2.76887310642672       -2.12763770290509        3.48319383762349
H            1.84211287882846        0.20465392616159        5.22938612998554
H            1.38525874224135       -1.49320938521243        5.45491280336814
H           -7.38491738665275       -3.19625754371158        0.77698916183877
H           -5.70448218395176       -2.37126742949452       -0.78379052396145
H           -2.96102554438758       -1.62171803643360        2.42692498644437
