151
 energy: -221.317950033698 gnorm: 0.007585822268 xtb: 6.7.1 (edcfbbe)
C           -7.79459866674180       -3.18118230332117        7.99674388014958
N           -7.43244950862453       -5.64372337404818        6.68576925170126
O           -9.24671871741117       -3.42971068657805        6.02133353734611
C           -7.90061916759525       -3.29721873442394        6.47634621493877
N           -6.96234842965748       -2.73068705389930        3.27125129330746
O           -1.70513095565350       -0.82049204917978        4.50105210436923
C          -10.08572449418680       -2.33161712278948        6.30814235913730
N            0.28344686898505        1.37372721589815        2.50439751052176
O            9.58633526294254        0.38269491596862       -3.62684532633928
C           -7.18724742171707       -4.54323548788803        5.98815197043794
N            1.45265674871203        1.24900345669640        1.74454163581800
O            4.34100916755096        3.38350841043874       -2.36303860872214
C           -6.87182655867877       -6.78269825371202        6.32418035583905
N            0.60295988603011        2.45841144267987       -1.58770227699688
O            1.34353291136096        4.51554381181998       -1.03152959409558
C           -6.01372738584031       -6.89346354065759        5.24061650779004
N            2.65357449441204        2.52172734641254       -3.57220588181520
O           -2.38309641122967        3.27333210802490       -0.21125629004235
C           -5.74741321249829       -5.75056527266715        4.51076401122709
N            7.37656596532632        0.21127943849668       -4.12842367087993
O            2.49075492430227        1.28208221795320       -0.24510241120590
C           -6.34273783686912       -4.54019626405085        4.87017536318899
N           11.26057929028099        1.19750364362634       -8.31361390457766
O           -1.52366309649234        1.41243256343476        4.61619003678774
C           -6.02477865785038       -3.35246816103709        4.06776322651114
N           -3.68210800005748        1.09049395180247        0.97516113189455
C           -8.27862210541611       -3.25030033053670        2.99192245918764
C           -8.24549663652208       -4.25320408869172        1.83850922280089
C           -4.79437793128583       -2.75351483503136        3.91635355157401
C           -3.51200081040435       -3.12814991719956        4.58693712125936
C           -3.12632766145423       -2.28054519506692        5.82168419830639
C           -1.89050128027156       -2.90684246099033        6.47352677308970
C           -4.27763206827668       -2.25292555626681        6.82585390517663
C           -2.80496955333557       -0.83397110495466        5.42371481100668
C           -1.16991039471181        0.34088145523433        4.17718628820022
C            0.00378865701844        0.13834014077814        3.23272751727263
C            1.48076094458575        1.48880211508598        0.42426693454262
C            0.23743747991608        2.10798934915488       -0.22902966520303
C            1.26599143872930        3.60159853301336       -1.84126549890800
C            1.88384005821394        3.72727113953464       -3.24138932844925
C            0.86160696967632        4.14366525066376       -4.31459795074736
C            1.59378655118572        4.68163131217444       -5.54453284990109
C           -0.08224750460249        5.21312486379971       -3.76729451828505
C            3.88592641933707        2.46350437603087       -3.04172902330763
C            4.81516906329504        1.26995379057591       -3.35429543387037
C            6.01138627381658        1.27403978137937       -2.40193295965537
C            6.96886588467544        0.13283682123902       -2.74369723040081
C            8.67279273210617        0.35774007996003       -4.45811691705570
C            8.96453641347975        0.46526231766753       -5.86505195209277
C            9.40797818206898        0.61229953758422       -6.97557398666404
C            9.83530752218954        0.85309495655747       -8.35183214765601
C           11.91995445814054        1.24662387754920       -9.60383145965719
C           11.56470754256393        2.37337965398733       -7.51984756705068
C            9.62425641455152       -0.44837403612044       -9.13910856886731
C            8.92389225964245        1.95984399123675       -8.92691923513328
C            6.28850814418321        0.17894447044743       -5.07530526878505
C            5.30801815464337        1.32437711425795       -4.80412437852963
C            2.04226985419022        1.50842418045178       -4.41515361927944
C           -1.00520263258230        1.22023660337421       -0.22111482209065
C           -2.24482236438792        1.96709948409835       -0.75047510188979
C           -3.51065596737370        1.14355318169349       -0.46294419383051
C           -3.90489467894881        2.42458310198400        1.50230618709344
C           -2.68487492045313        3.28436135356758        1.17394393454697
C            2.65787274890497        0.84802888682798        2.45768038175997
C            2.42193561158550       -0.48086315916055        3.16750571799449
C            1.20156865449459       -0.34677838071310        4.07375070032545
C           -4.97589959850758       -1.71155695084732        2.96097940298184
C           -6.33988365068178       -1.73229360567511        2.57615827613141
C           -6.83613829993326       -0.82510058974524        1.64475594078025
C           -5.96855997689093        0.10354260923846        1.11145298539048
C           -4.61239011206945        0.12383975693773        1.47099572573723
C           -4.11356103590981       -0.78787190996976        2.37546546496735
F            4.14031606267262        0.05715583297368       -3.14673024625671
H           -8.19676189830786       -2.23273731855888        8.34076685782565
H           -8.34170536078475       -4.00063250512691        8.45302156045398
H           -6.75187562710876       -3.24471170594716        8.29096863684970
H           -7.45608514486778       -2.40556325479192        6.00233108478477
H           -9.62000545198731       -1.39112617307684        5.99394625149170
H          -10.99600682301669       -2.49910926163543        5.73667924407242
H          -10.33253422236354       -2.27878451663820        7.37142023081118
H           -7.12175179312347       -7.63742712249120        6.93728339176001
H           -5.57435478128934       -7.84164300195154        4.97715985091272
H           -5.09220424242992       -5.78161036232657        3.65216205451306
H           -8.66317517182181       -3.73348107732929        3.89247154337474
H           -8.93485868251446       -2.41286073823166        2.74587140762675
H           -7.46029103445970       -4.98565107183517        2.00520517044760
H           -9.19371838838676       -4.77498221224534        1.77465202177599
H           -8.05390720839233       -3.75241697093904        0.89412101400342
H           -3.58043617012147       -4.16661492764084        4.91554967800013
H           -2.70264430415328       -3.04987972049820        3.85913183599697
H           -1.58432524610403       -2.32800257683532        7.34186093477484
H           -2.10922193229260       -3.92101940363439        6.79684252732330
H           -1.06464862733254       -2.93748176174123        5.76782013497879
H           -3.98958867813751       -1.71590188228182        7.72588540759668
H           -5.14850586902861       -1.76546477953563        6.39638428108409
H           -4.55165368900993       -3.26886875146192        7.09889213030279
H           -2.52972186024103       -0.24002115472171        6.30118142128875
H           -3.66602475910904       -0.35833453905120        4.94476746335321
H           -0.25625229549787       -0.63254448843146        2.49983743065223
H            0.36444340560908        2.14637571734800        3.16757165044697
H            0.02919791113739        3.05030427224856        0.28938624110102
H            0.76863527797280        1.66622731374392       -2.19189396069422
H            2.61574088733586        4.53909366199381       -3.13740460204793
H            0.25183130331095        3.28555794696585       -4.60062925952583
H            2.07719007853615        5.62614553216716       -5.30471085386324
H            2.35974280986844        3.99233067405939       -5.88750473365308
H            0.88954815893545        4.85206506631400       -6.35394972010693
H            0.47725246818774        6.08360614118980       -3.43288856165439
H           -0.77633100936252        5.52125064730059       -4.54516053296359
H           -0.65369033833148        4.84059453121530       -2.91975414832052
H            6.51116939888504        2.23885986935777       -2.48008085949159
H            5.64640531177464        1.16513357225235       -1.38002150269469
H            6.47154709398871       -0.82718195369919       -2.57036252627320
H            7.86613602379358        0.19099967576764       -2.12564162555161
H           12.92987338377740        1.62648184627871       -9.44987501572551
H           11.99750501933135        0.24327350749588      -10.01927229183913
H           11.41796702234660        1.90232526060214      -10.33046579057181
H           11.40879480316585        3.31539145541861       -8.06979389445924
H           10.94770678963672        2.38021226221807       -6.62165644415837
H           12.61209370088454        2.32157137948830       -7.21108396982681
H            9.74355555513748       -0.27139522575609      -10.20378273248845
H           10.34095610336146       -1.19666978002478       -8.81301744189582
H            8.62045965186617       -0.82370989630331       -8.95955419994481
H            9.22486795978693        2.20602827396588       -9.93777047896052
H            7.89670644839461        1.61560518471480       -8.94793448714893
H            8.97539107371714        2.85462735059927       -8.31650516515263
H            6.69302704348521        0.26094932854951       -6.08435401685902
H            5.76181601601960       -0.77601592807265       -4.97174045270306
H            4.47495466073486        1.25064617186856       -5.49958228667902
H            5.80354824735094        2.28548713102791       -4.94424759746225
H            2.50723835981935        0.54191341329719       -4.26525898227397
H            0.98590467169713        1.41009406655321       -4.17171083837149
H            2.12401016108109        1.79104575716248       -5.46662003446365
H           -0.83721778990144        0.34197941666842       -0.84298819627007
H           -1.21106945124855        0.90293939243274        0.79834695152097
H           -2.14656942996630        2.14395195135746       -1.82606561375962
H           -3.39386974353759        0.12810611529632       -0.84199214296340
H           -4.36572077236469        1.62171998032598       -0.97263821070974
H           -4.81289004203620        2.88939184944007        1.07575915703344
H           -4.01609426965490        2.36243092186045        2.58687601169883
H           -1.82885481058668        2.92621406037069        1.75847452383918
H           -2.87478087213281        4.33157149203835        1.41653577942915
H            3.45924003091379        0.78005698940274        1.72273849359406
H            2.90340101383543        1.63069300050399        3.18436942625386
H            3.30340355278905       -0.74371098746419        3.75012395230686
H            2.24963918255351       -1.26029625010935        2.42439047721895
H            1.40273968587765        0.38145130086644        4.86323932726591
H            0.95516335346690       -1.30143341121307        4.53616969586653
H           -7.87358865682481       -0.83656043781830        1.34674681578645
H           -6.33545023158940        0.82680887063867        0.39706489368222
H           -3.06214925161868       -0.76988721999321        2.60726020562722
