151
 energy: -221.325908273409 gnorm: 0.003836471959 xtb: 6.7.1 (edcfbbe)
C           -9.49556669291103       -3.33332756698858        4.79923628090457
N           -8.16309087271592       -4.68395785929103        6.88958556498684
O           -8.46462565556121       -5.44609247736601        4.06215931281633
C           -8.21453232288980       -4.12873745759908        4.54938442011802
N           -5.00814404730549       -4.46048868483641        3.67867285403428
O           -3.37540880784644        1.00470894924302        4.52747774132099
C           -9.03521249903361       -5.50707326233300        2.77284100016247
N           -0.58793089675086        2.56817512617612        2.91619691867521
O            6.65410679333022       -1.97412529411797       -7.72754576952130
C           -7.44172416741416       -4.31293377347501        5.84142275381220
N            0.73106447422250        2.89885248403859        3.24253808143266
O            5.22674082219626        0.51949166675413       -2.56898498809392
C           -7.56865899131095       -4.87538597772006        8.05306979149591
N            2.54581641968847        1.79161833283987        0.28365225688599
O            2.08222299289915        3.79773829873931       -0.62076673543978
C           -6.20719180075332       -4.69882246697994        8.24605809180081
N            3.65936742419679        2.13102377425442       -2.73004975338538
O           -0.28099538660781        0.66274372486065       -0.82228556374171
C           -5.44591436677036       -4.31403946656560        7.15842601873516
N            5.09223133078233       -0.44374599928171       -7.11947310671470
O            2.91793117864780        2.81810279404717        2.72152604363157
C           -6.05565283281896       -4.11788328319807        5.91850936422513
N            7.64053035041571        3.31888825950548       -9.63793443987273
O           -3.27689448202246        2.29306279561656        2.69669798714441
C           -5.22085489278273       -3.68075083390013        4.79479695849732
N           -1.63461741771165       -1.05734371134976        0.92914683651558
C           -5.37619188757862       -5.84685085292912        3.53310900116985
C           -4.24368737349445       -6.76795955366775        3.98367459357121
C           -4.51235245277923       -2.50301313066395        4.69996329546099
C           -4.45386533947753       -1.40426694904975        5.71354287362772
C           -5.31616983020624       -0.15435053676581        5.41831555297970
C           -5.33540785442829        0.72953631615386        6.66836661380942
C           -6.74188864815317       -0.56717121363908        5.05628436277979
C           -4.74114603468852        0.65584753074229        4.25052790940216
C           -2.75355196149676        1.78459718797083        3.66359809364656
C           -1.29511130142313        1.98293302287128        4.04944493213882
C            1.75384527645741        2.53639950086886        2.45304764554759
C            1.38991583436378        1.81147876038960        1.15271393463827
C            2.80572011816082        2.81191249594253       -0.53733799858874
C            4.05015979811091        2.63714227244248       -1.41405353783994
C            4.82011916561391        3.96961395014861       -1.49183039165310
C            5.91919245207359        3.91743517739142       -2.54918799494786
C            5.41316242789498        4.25858853769565       -0.11361995148500
C            4.32724173664836        1.07185089753977       -3.20417092000983
C            4.04403924821476        0.56706295567768       -4.63305088071714
C            4.51419106199046       -0.88303976224925       -4.78526025462354
C            4.39317933444116       -1.35009931613841       -6.23670944182890
C            6.21657030486387       -0.82220351691874       -7.75697154686714
C            6.88239253652581        0.21149902363412       -8.50680491383712
C            7.58295300180590        0.94798073816108       -9.15634780857355
C            8.28842506808721        2.01568971330864       -9.86588605924783
C            6.30379791404820        3.41768190950339      -10.19466477313114
C            7.64337837322949        3.73225770254536       -8.24612943430689
C            9.74102664020883        2.06374995879102       -9.36116875507640
C            8.30833975926660        1.68336206089214      -11.36583766502366
C            4.60533570634598        0.91127964551455       -7.05617687047989
C            4.77513171842478        1.46445578762594       -5.63933169106464
C            2.54093776048832        2.78079667577528       -3.38418226575619
C            0.85698541649547        0.39542954976197        1.35387046493802
C            0.42940483138224       -0.23706128692759        0.01450789813874
C           -0.41905112448708       -1.49199983775868        0.27552436669942
C           -2.39904128502071       -0.19863548819558        0.04102893490205
C           -1.55289712152021        1.02361972398348       -0.30642842585253
C            0.92910849046743        3.74576945149573        4.41053064833045
C            0.27325860886147        3.10335580134667        5.62896823398225
C           -1.20070063577334        2.84082005194312        5.32550613436896
C           -3.81379663079542       -2.56042216538024        3.45869387376394
C           -4.13903725816349       -3.80138700552712        2.85564572021104
C           -3.60010115815832       -4.16903709503991        1.62682780644336
C           -2.76203625135249       -3.28067093818889        0.98762378917462
C           -2.43630857934380       -2.04687397143768        1.56886541298915
C           -2.93380938994916       -1.70107961359582        2.80783420355801
F            2.67524877712553        0.59211928717118       -4.91420828676380
H          -10.02792462560144       -3.16087225197607        3.86831056701097
H          -10.12822451226435       -3.88592016434223        5.48707059505763
H           -9.24263978230356       -2.37353518526663        5.23860493636777
H           -7.58517201267664       -3.59618292492387        3.81669234068011
H           -8.48013720305282       -4.87558097671320        2.07025858384930
H           -8.96268024252531       -6.54842394300365        2.46624612429015
H          -10.08592917206609       -5.20593383941021        2.78008542774502
H           -8.21858169976655       -5.17904340255674        8.86265475744776
H           -5.76079763198274       -4.85996126573693        9.21367210745947
H           -4.37869410755129       -4.17578671757038        7.25136543819549
H           -6.27308649800338       -6.03960771716806        4.12475820489095
H           -5.61358834991826       -6.03069454100479        2.48190051061355
H           -4.02760175851593       -6.60945461900779        5.03738072502748
H           -4.53113310519450       -7.80475048189706        3.83870802818954
H           -3.34147300500954       -6.56770200805602        3.41088446575619
H           -4.78645836027263       -1.80343024653100        6.67302091945428
H           -3.41704527469564       -1.08016002806518        5.81749063525853
H           -5.87932038265472        1.65005321601329        6.47240773506619
H           -5.82171895063827        0.21209428763804        7.49033172345417
H           -4.32194023557991        0.98393829428500        6.96711026258303
H           -7.16357645127118       -1.17106596814467        5.85608902451619
H           -7.37059011328476        0.30848427592523        4.91256392167994
H           -6.75101343820029       -1.15380751216818        4.14152805128757
H           -5.31318161734750        1.57602271783046        4.09480386644925
H           -4.76738993140578        0.07769342220381        3.32240381194493
H           -0.85376266066013        1.00014088551367        4.25099706079082
H           -1.09936386195092        3.38760380050530        2.58346529688068
H            0.64099498971498        2.42790088658259        0.64342033948938
H            3.22736712124496        1.06204383484444        0.42515746052883
H            4.70853983320721        1.87650963521669       -0.98350455813238
H            4.10845174013630        4.76305158600095       -1.74025149841445
H            6.54346303864261        3.03898588648393       -2.39949397065731
H            5.49911091955829        3.87582687780167       -3.55016302633319
H            6.54277797569375        4.80359163332065       -2.47480349401923
H            5.88670514774847        5.23491168986663       -0.10688005525375
H            4.64001776378542        4.24401241652737        0.65128865818297
H            6.15893051795217        3.50881222803809        0.13912637981274
H            5.54941110800499       -0.93933302328757       -4.44898328772142
H            3.91128038137298       -1.52379960136717       -4.14158575481972
H            3.33878073057088       -1.38083669541837       -6.52853345005551
H            4.83253783950576       -2.34205194758157       -6.35392601950564
H            5.60905086981726        2.66783202413379       -9.78590678844312
H            5.91291950786268        4.40811638477331       -9.96984201332481
H            6.33993011093610        3.31070839197586      -11.27454290741217
H            8.66407405175802        3.85350172857660       -7.89310524675365
H            7.14672311212490        4.69818123480663       -8.17519217504929
H            7.12222855351310        3.02256854852820       -7.58449334329063
H            9.78866405747428        2.00780171745902       -8.27864936120763
H           10.29555487793221        1.22151788391293       -9.76353632544150
H           10.20099501471157        2.98607373333536       -9.69877008196993
H            7.31533007926613        1.44953453089107      -11.73856711039038
H            8.71179445791386        2.53116106373172      -11.91159424402527
H            8.93919749073842        0.81517971329069      -11.53604328543759
H            5.15231492048103        1.52882812445239       -7.76954607729717
H            3.54262305941872        0.91247987048970       -7.31952308619440
H            4.38627598620519        2.48082266533350       -5.60109818455364
H            5.83066615860058        1.48158119630495       -5.36425674108742
H            2.77007384268053        3.03167832974378       -4.41647617141312
H            1.65682815257833        2.14091305602768       -3.36182408837837
H            2.31014534193232        3.69362071923474       -2.84311072470810
H            1.62679640465123       -0.22938219867540        1.80623351416766
H           -0.00972510772225        0.42648421528389        2.01038299701597
H            1.31161093383374       -0.50001356274776       -0.57869100611740
H            0.11463737078360       -2.17824082974039        0.93327886742087
H           -0.60824571653619       -1.99042205158538       -0.69130299035514
H           -2.68614325714568       -0.73183761662970       -0.88395761420607
H           -3.30403242173573        0.13233856167856        0.55281254953539
H           -1.44712048596494        1.64412179432814        0.59055123745141
H           -2.02678214479566        1.60843134543587       -1.09601096669711
H            2.00369100629265        3.86796542051419        4.54131567070087
H            0.47790283732152        4.72428065945671        4.20991487098236
H            0.37326794681397        3.76649372110132        6.48687424677605
H            0.77707639204336        2.16291845760696        5.85611119880552
H           -1.72228180368190        3.78715706879018        5.16540092627133
H           -1.67917722891869        2.31479597261961        6.14973398804819
H           -3.83605970358375       -5.11818492808482        1.17017149208722
H           -2.34885573067382       -3.53620974917920        0.02298569904283
H           -2.62019795614797       -0.76938125485908        3.24358608137694
