151
 energy: -221.319419070321 gnorm: 0.006103361094 xtb: 6.7.1 (edcfbbe)
C           -9.41329530659589       -3.20225644197520        4.71468729070955
N           -8.08277606267707       -5.38685814844626        5.83937279363336
O           -8.53280747721322       -4.62695373747937        2.93057542090849
C           -8.17827004491016       -3.78801835889369        4.03181447220906
N           -5.05244107343406       -4.29318788610839        2.77482144678992
O           -3.00960670357038        0.67496430344343        4.85951296395522
C           -8.81445602778245       -3.91999944762949        1.74140170125195
N           -0.48431123415677        2.78016054100961        3.50244074727605
O            8.87516684359230       -0.79485995143369       -5.34666946798941
C           -7.38009362924289       -4.62820384245606        5.01081552981764
N            0.84377049459349        3.13732366899430        3.74750311502923
O            5.73720556657907        2.33828843860354       -1.53126623949339
C           -7.45478626467435       -6.12381818390906        6.73766704927532
N            2.33769964842542        2.71844549259919        0.44885334668289
O            1.35841838427971        4.52421349971609       -0.48486942599307
C           -6.07677235429357       -6.12123776354762        6.88879938255624
N            3.57717361653434        2.50369198045444       -2.14001125553848
O           -0.20945448136214        1.45590180069158       -0.69819516380246
C           -5.33310306027227       -5.34048026981693        6.02190151668202
N            6.63244568291548       -0.64993810125917       -5.03321165666562
O            2.95590509043154        3.31178514853904        2.99195533398494
C           -5.97894568512208       -4.58904824407558        5.04075059027662
N            6.36647383646330        1.17719989328254      -10.07470890520578
O           -3.18182951735960        2.58280307894586        3.69827145418024
C           -5.16253422066738       -3.84288392377576        4.07322917916424
N           -1.58079543603048       -0.46024862979617        0.83250327167107
C           -5.59821240089268       -5.52199852300980        2.25475071204922
C           -4.70618795514625       -6.71861272693010        2.58027197705437
C           -4.36204051222871       -2.73917908729742        4.26677937832025
C           -4.15576802414471       -1.97877382453267        5.53965018644214
C           -4.91206125223581       -0.63638083807173        5.67684284000095
C           -4.71063394923481       -0.10741921429917        7.10027289624101
C           -6.40502104709994       -0.83803754972980        5.41607016866356
C           -4.41152396700571        0.41136966495671        4.67663852890120
C           -2.52177105634414        1.76355203878436        4.30035270108682
C           -1.02680086215390        1.90492640747430        4.53591043006262
C            1.78293368893978        3.00565855082370        2.79828996980969
C            1.30432929277775        2.50465462130470        1.43506994454616
C            2.28086247535414        3.72369757223736       -0.43806375958725
C            3.48396632137133        3.75477408647730       -1.39012662389143
C            3.53352328086465        5.02620139431049       -2.26683164429160
C            2.41420418801277        5.15366546946741       -3.29716627600375
C            4.89303020304533        5.13385929506199       -2.95611138116887
C            4.77405579103563        1.89940060949283       -2.16076600566412
C            5.00314705334234        0.65359432409857       -3.04668385197219
C            6.36263791421527        0.03477890334211       -2.71083721323017
C            6.69520267405666       -1.11070101718363       -3.66530864841985
C            7.75413376610256       -0.48158399455761       -5.75566463840371
C            7.58731615274051        0.05593508496841       -7.08074458476099
C            7.66183166629979        0.47493541012570       -8.20776980637967
C            7.73249655720090        0.97007891478123       -9.57936413985660
C            6.26628282589693        1.53827915346641      -11.47424956746434
C            5.57555351778536        2.08742664800961       -9.26906653503557
C            8.61131171105197        2.24055596004856       -9.57169110401623
C            8.43374422241934       -0.13330418279026      -10.39106633900165
C            5.32976517529404       -0.16232218018175       -5.41388049107848
C            4.93404461996591        1.02733677770501       -4.53093041805037
C            2.36420378438964        2.01596106547688       -2.76945597750310
C            0.88805703891381        1.02973040579731        1.47412413329963
C            0.50072380977123        0.50435291972384        0.07873069949070
C           -0.31659835428308       -0.79046514545862        0.20568900447992
C           -2.32765988735441        0.46366971943054       -0.00559996561122
C           -1.50540186274050        1.73312912143219       -0.19442430036863
C            1.15212744882533        3.69853475079030        5.05529764056901
C            0.69337536886773        2.73346538718447        6.14500692292923
C           -0.79466027358466        2.44203572108828        5.96275450605756
C           -3.71339175365303       -2.49746182071605        3.01917622179024
C           -4.16405648644183       -3.49312204853731        2.11682359616247
C           -3.71253184435536       -3.53727773150194        0.80150807648159
C           -2.84211616815882       -2.55777155792962        0.37915972741525
C           -2.39385129698356       -1.55898936240673        1.25637680903077
C           -2.79647683762206       -1.54639512074574        2.57410315036543
F            4.03151277371111       -0.32187354026049       -2.77100521202800
H           -9.11103261815576       -2.59465682429894        5.56202026435996
H           -9.97702385570820       -2.58397621576924        4.02243361561693
H          -10.03850473986459       -4.01758863761673        5.06394907227540
H           -7.53053457321048       -2.98053237992805        3.65598927574704
H           -9.08962915434795       -4.66948183350588        1.00166499376520
H           -9.64471618133657       -3.21910139819401        1.87152016328089
H           -7.93004625242688       -3.36703853507814        1.40208459993217
H           -8.09284381948806       -6.73245397036526        7.36290729911274
H           -5.60151485689023       -6.71771375857126        7.65005971821852
H           -4.25446313104344       -5.31656595322633        6.08194939481194
H           -6.59643854717251       -5.67722506317293        2.67003542066417
H           -5.69285511905588       -5.41255344046500        1.17234332996433
H           -3.69813455127189       -6.55323189810024        2.20763542465515
H           -4.66034739598793       -6.87580186485138        3.65535378439508
H           -5.11107730612757       -7.61219817226910        2.11649527895105
H           -4.47174209491932       -2.61155078522109        6.37114971703641
H           -3.08874560520363       -1.77418513964007        5.64970599091077
H           -3.65174823249478       -0.00082347308994        7.32284884435255
H           -5.18745993970027        0.86375096955952        7.21366199203423
H           -5.15161368601037       -0.78943203439596        7.82088184524491
H           -6.57711402045592       -1.10286336435035        4.37628950854137
H           -6.78759457858992       -1.63770460341915        6.04503867625139
H           -6.95859969628567        0.07153197271764        5.63356472730675
H           -4.95344166124268        1.35277506305655        4.80392352111829
H           -4.55871359149659        0.06782510346880        3.64817927790766
H           -0.54708786263725        0.92439863624436        4.43963420735880
H           -1.07917948055406        3.60347455551030        3.40722576162561
H            0.46279076457015        3.13175320944565        1.12502833054180
H            3.19844477647707        2.20965332441696        0.56871640724465
H            4.37999887354031        3.78642258795732       -0.75462158219681
H            3.43045906567115        5.85463613536604       -1.55750064412721
H            2.41215032760097        6.16645229730389       -3.69149505633825
H            2.56509975189620        4.47345997726319       -4.12953322759311
H            1.44945252958136        4.96518388762038       -2.83816067649842
H            5.01612831981287        4.33298974972502       -3.68270394795656
H            4.97307400843638        6.08442232298190       -3.47522911677117
H            5.70348922169542        5.05926711982992       -2.23496009602356
H            7.11933977892541        0.81627793144324       -2.77745888600242
H            6.34404265409154       -0.32768282090868       -1.68295522079396
H            5.97510429145281       -1.92441604607452       -3.53604429392367
H            7.70355263577939       -1.48081708125621       -3.47380621622913
H            6.78886241032989        0.81435414088909      -12.09223847989888
H            5.21147176004017        1.51946281568652      -11.74557124970369
H            6.65580532021004        2.54467200658348      -11.68940832205979
H            5.73780023012581        1.88075740544282       -8.21386393683864
H            5.80765675427030        3.14498431858969       -9.46232671837123
H            4.52382446126328        1.92196670071622       -9.50209409738541
H            9.58607066023294        2.00632238336707       -9.15192653929010
H            8.74381846264731        2.60495312406968      -10.58688496348386
H            8.15606105375562        3.02196859908900       -8.96718056825695
H            9.29400532447165       -0.49893831711484       -9.83559380079204
H            7.74828789280091       -0.95910641638819      -10.55662932001711
H            8.78134856651082        0.25069041156970      -11.34561085297920
H            5.34389707195363        0.13328277346774       -6.46286980493314
H            4.60516486390614       -0.97045066662852       -5.27694935297702
H            3.92826405504401        1.34591698872419       -4.79526164670366
H            5.62602186161433        1.85506980844449       -4.69315386839889
H            2.25731384008050        2.40247346059106       -3.78085074853501
H            2.34522838428899        0.93287340928936       -2.79611114641294
H            1.50663212195699        2.34715475936531       -2.18723441931791
H            1.71065258230864        0.42577504251759        1.85773378933653
H            0.02712629440777        0.92683362555847        2.13139016981521
H            1.40485512739791        0.30664466793996       -0.50599311183242
H            0.21237228368389       -1.50933976720724        0.83222759889099
H           -0.44186143042795       -1.22075382173657       -0.80400129493570
H           -2.56337965941625        0.02432604495139       -0.99191788783961
H           -3.26290173868849        0.71584070089707        0.49751733042002
H           -1.44620570910415        2.26178376215704        0.76337589683840
H           -1.96544064192290        2.38597625791143       -0.93691484256492
H            2.22836147873694        3.86660963699379        5.08624424015760
H            0.63398778930761        4.65925093737915        5.15596600255516
H            0.87711611603152        3.17611009859379        7.12239677439261
H            1.26387034069302        1.80684081205061        6.06917087285951
H           -1.37305567766275        3.35875634082587        6.10098407924170
H           -1.13608269730450        1.70253974981554        6.68545312278121
H           -4.04067413463193       -4.30783739513952        0.12077652563758
H           -2.50103163973072       -2.55704528823814       -0.64633534430936
H           -2.39575634207920       -0.79507408856720        3.23207820731712
