151
 energy: -221.327040986203 gnorm: 0.009090309761 xtb: 6.7.1 (edcfbbe)
C           -8.15164848087144       -4.17671068498877        4.36946135605251
N           -6.40822087583258       -6.38727869554339        4.66159082865164
O           -7.61907995463879       -5.25384151634739        2.22432096836032
C           -7.09041974065067       -4.50718549516173        3.32036197642261
N           -4.33995227319148       -3.95147174721228        1.52551460470499
O           -2.36560280893652        0.27982910300693        4.87906673749398
C           -8.44682389211615       -4.51738835112576        1.35076092765312
N           -0.34596198177916        3.05478257750635        3.96368198161014
O            2.88101584715985       -1.97156349522745       -5.22361316574195
C           -5.99525419735095       -5.36699477190747        3.92335322071248
N            0.96809105706571        3.48496841887002        4.16712991675169
O            4.48443194468456        3.17394514171884       -1.71385122035981
C           -5.51820723388396       -7.18635918755558        5.22055954939060
N            2.17759186175061        4.03888651993085        0.77024264502325
O            1.02688739842547        5.88829050607724        0.18636696262114
C           -4.14987352482981       -7.00591452581427        5.09177464571721
N            2.71695885049364        4.49979284366655       -2.14951949168578
O           -0.41098777373695        3.06870635984114       -0.55217110768405
C           -3.70904993514457       -5.94507232999206        4.32315095805553
N            3.46776932615830        0.21648256889161       -5.23638397029328
O            2.95769123207172        4.08659352041381        3.30289828023327
C           -4.63555599207651       -5.10301443277930        3.70760825967114
N            7.20851911948425       -1.44783401429781       -8.75470519809787
O           -2.97853548776548        2.37027286708499        4.34370340807486
C           -4.13769939758796       -3.99277653612355        2.88838459295067
N           -1.63467813220117        0.74251291526493        0.40983610067201
C           -4.83595926840265       -5.04243323020216        0.72348008446072
C           -3.73413720429584       -6.06124191389414        0.43274377741461
C           -3.39305634176297       -2.90853316120334        3.29601885159491
C           -2.94001090491073       -2.58876707260665        4.68472212990822
C           -3.81369613948496       -1.57657187193330        5.46186021080920
C           -3.31145276927945       -1.50799150754626        6.90699068410207
C           -5.27736717900591       -2.01228116401532        5.44550263582232
C           -3.72445066209318       -0.18083303168043        4.83364797110747
C           -2.12888566552217        1.54808057694327        4.61416169577507
C           -0.64769123885447        1.86193514428641        4.74470830344109
C            1.79706815077402        3.71346845128809        3.13673941362786
C            1.21125635582816        3.55688296927172        1.73040613273720
C            1.99480892737321        5.15290232499256        0.05564515252868
C            3.06486152751681        5.36698611161764       -1.02263611028468
C            3.18573903683517        6.84149112359833       -1.43596899466916
C            4.14109522024370        7.00013996121044       -2.61599724286816
C            3.68462888707724        7.65296128356641       -0.24161380271281
C            3.53737298544119        3.48443077307792       -2.43873393637885
C            3.30411311301345        2.65398712578245       -3.71219889671205
C            2.38837733637007        1.46107534677035       -3.42015850176495
C            2.19662214943817        0.63824193945617       -4.69215086116306
C            3.68277494918283       -1.08008119247245       -5.51623458895982
C            4.88999066696142       -1.39969521168195       -6.23265929954478
C            5.76721237049226       -1.86414485281022       -6.91587834444892
C            6.85754820478672       -2.42261901268559       -7.71301236119361
C            8.40976922815965       -1.75488672468178       -9.50432258219971
C            6.11034802238722       -1.13879812474945       -9.65120836462544
C            8.04149395135826       -2.64032435603919       -6.75751093928289
C            6.37146095792092       -3.78611654161188       -8.25078772252575
C            4.39207426150028        1.28882149888755       -5.52352662534307
C            4.63445577115631        2.13914387423930       -4.27268625726588
C            1.46996446030909        4.81166746022703       -2.81945604966205
C            0.80337402079800        2.11810165466022        1.39153042998126
C            0.37762298339850        1.98552293049988       -0.08399748838719
C           -0.36994015849098        0.65974571551627       -0.29345000571431
C           -2.45056883773274        1.80001383106803       -0.15768550468281
C           -1.70111931708220        3.11627879300417        0.03305574514433
C            1.38752287442610        3.70948759537476        5.54362506358197
C            1.15599218618621        2.44458358267383        6.36531339086595
C           -0.30688142642403        2.02491923057678        6.23922797869599
C           -3.10766556158070       -2.15764775584666        2.11793200838213
C           -3.70894961661352       -2.84479701923889        1.03303464700803
C           -3.61719265014643       -2.36088386940142       -0.26764449071105
C           -2.93291663314952       -1.18408513505618       -0.47629872554407
C           -2.32206238964876       -0.49970845000132        0.58488326012851
C           -2.39126941691172       -0.98810865863919        1.87192412854693
F            2.72385332398612        3.44979696094692       -4.70573719655695
H           -8.61657304624908       -5.09896147574560        4.70395224169600
H           -7.68242951633672       -3.68524369492764        5.21558988726811
H           -8.90756507622158       -3.51483981052549        3.95599723909586
H           -6.64877796701680       -3.57640562857085        2.92796842966398
H           -9.39265467645332       -4.23934224900744        1.82347978919250
H           -7.93513391072436       -3.61236738450801        1.00053052764622
H           -8.64562678041104       -5.17615163299033        0.50807061310936
H           -5.92851976079259       -8.00459446803475        5.79621917725899
H           -3.45549418106244       -7.67692914875658        5.57049576261647
H           -2.65359444416556       -5.76630493218685        4.17664349451521
H           -5.66165606897346       -5.53010851958364        1.24563652616595
H           -5.21623009637290       -4.62774379677292       -0.21256105315726
H           -2.88361380205112       -5.57556411999639       -0.04166366330403
H           -3.39897804460610       -6.52723665967498        1.35671994640595
H           -4.11237012038686       -6.83348549108190       -0.22912655922157
H           -2.91714470223084       -3.51163937255429        5.26644597451907
H           -1.92638220182473       -2.18758334022842        4.63501695788259
H           -3.88053507346696       -0.77309907538404        7.47198992706315
H           -3.42290494778881       -2.47470897168413        7.39056229242207
H           -2.26206701607493       -1.22621224417679        6.93010363425432
H           -5.88120439250996       -1.35294662975699        6.06314103654443
H           -5.66951046921609       -1.99086703624812        4.43264358332318
H           -5.36445202212919       -3.02590416084422        5.82855152442784
H           -4.35271806240468        0.53322455918202        5.37485563790558
H           -4.04833052308859       -0.19879101950652        3.78895714292922
H           -0.06978747209362        1.02756341025819        4.33498213898239
H           -1.01287626460733        3.78947788138435        4.20390977431850
H            0.34717412094297        4.22503812816723        1.64898513748533
H            3.04542892213469        3.52390653053610        0.68884241864908
H            4.03179538996096        5.01598659037431       -0.64815750511508
H            2.19244127846374        7.20761440152697       -1.71021722294260
H            3.78510385445942        6.46775812802707       -3.49431886045335
H            4.23746014814553        8.05140988979255       -2.87055491776650
H            5.12451799387319        6.61411088419123       -2.35627056257802
H            3.76155173777249        8.70241433404186       -0.51164795004593
H            2.99659885092794        7.56211274152710        0.59595127328180
H            4.66427570493410        7.30342105903211        0.07672870670281
H            2.86331131599071        0.85989655954169       -2.64406900391250
H            1.41585538405915        1.79583737901238       -3.05882485591557
H            1.67844644054956        1.24879235119582       -5.44082343291477
H            1.60822166747995       -0.25764541998471       -4.48698977853281
H            9.27087691749453       -1.77347990425364       -8.84128329753501
H            8.35562457712021       -2.70863292132598      -10.05123620012761
H            8.55920740967096       -0.96041930713047      -10.23228706308081
H            6.34724306409312       -0.21347898466986      -10.17625813234024
H            5.92970457901762       -1.92377569135735      -10.40098552888189
H            5.19896291625542       -0.98757453126145       -9.07467736169386
H            8.48694766900960       -1.68526026563330       -6.49419505527979
H            7.68794117431552       -3.12360367583145       -5.85046540589150
H            8.78983584377045       -3.27902051606108       -7.21829257398189
H            6.19890632799747       -4.46448360344683       -7.41919316719753
H            5.43936990058574       -3.67592810875825       -8.80053232266150
H            7.12308936603193       -4.22048215257464       -8.90609034130706
H            5.33202219985108        0.86496303263227       -5.87772245972708
H            3.96786304955149        1.92457890431657       -6.30945703055236
H            5.27015849970974        2.98659556036164       -4.52842206310435
H            5.12943350655544        1.56163680130713       -3.49282080793176
H            0.80934440683651        5.29420648298224       -2.10210976203703
H            1.63085768049465        5.47772662777323       -3.66756437395041
H            0.97584273390418        3.91015580777231       -3.16542398337123
H            1.64577241556223        1.44767892886424        1.56253907597652
H           -0.03067912959723        1.82268762962370        2.02432890841019
H            1.26674101534520        2.01499815645811       -0.72280933515230
H            0.21151481367842       -0.16736898778779        0.11295210459930
H           -0.50958689226667        0.49638605701687       -1.37673865634989
H           -2.65200422838600        1.64539830342243       -1.23306654960466
H           -3.40019476991852        1.83909083843109        0.37823121552060
H           -1.63309956731975        3.33296294636710        1.10534493174408
H           -2.21444503045927        3.93813878764717       -0.46857230316591
H            2.44049035011137        3.98927064212385        5.51663600260121
H            0.80455699135809        4.54087458851599        5.95511094872073
H            1.40784413013453        2.63628743009670        7.40713881771552
H            1.80205309170557        1.64890228514244        5.99225960210371
H           -0.95407371890499        2.79071314550124        6.67449970050829
H           -0.48610880816007        1.08354691224637        6.75718767603961
H           -4.07053637462920       -2.88215412402265       -1.09714259059337
H           -2.86066534774944       -0.78135575008786       -1.47627234723340
H           -1.89139642945547       -0.45144384911620        2.65952172995814
