151
 energy: -221.323679511190 gnorm: 0.005659194916 xtb: 6.7.1 (edcfbbe)
C           -9.00908878986823       -3.47539257051931        4.72219734810631
N           -7.60769709889211       -5.46645605784450        6.14445249735853
O           -8.09366092537432       -5.18313059383828        3.21084577912721
C           -7.76732180751568       -4.14485702092124        4.13310975874745
N           -4.69949487401845       -4.36728226843175        2.95359958454026
O           -3.16886901115269        0.83671225100186        4.93562258802753
C           -8.64370092899556       -4.73298206897670        1.99182760557965
N           -0.85363975376169        3.06566897967720        3.37409786824827
O            4.57394806972850       -2.19587488982418       -7.39252662805866
C           -6.93600675289307       -4.78513145639766        5.22895179988976
N            0.42380092431700        3.56108671283380        3.65433052474435
O            3.92978193312028        0.95201379742365       -2.20348459725041
C           -6.95069745438260       -6.03714943943342        7.13869350488077
N            2.34051251887830        2.81139899947575        0.62164138955632
O            1.68859234303077        4.50109569873713       -0.71899353927763
C           -5.57635411331368       -5.94348740981512        7.29229664305880
N            3.49147399272709        3.12539505872522       -2.59952283095940
O           -0.43800342850090        1.74798067818060       -0.68560479037427
C           -4.86484631482210       -5.23792818886814        6.33889911431818
N            4.06699136120746       -0.07573174104486       -6.77247069530035
O            2.56209090292087        3.87350556858273        3.03365980035405
C           -5.53961086349576       -4.65147994654778        5.26973704437691
N            8.23511787955550        1.13832387443426      -10.24314374143860
O           -3.52899112654216        2.44345729820479        3.41426631711735
C           -4.78079105119895       -3.91532448788613        4.25321398540488
N           -1.69705711875450       -0.24778157577348        0.82387451657544
C           -5.08444090933186       -5.68223206067630        2.50290037535555
C           -3.99481685259345       -6.70875138754326        2.80629525655333
C           -4.07677979573854       -2.74108567829286        4.39860908462096
C           -3.86184758089131       -1.94887729075735        5.64925777693379
C           -4.78758245597047       -0.72853438509203        5.85844183666309
C           -4.52963688751434       -0.15908512506992        7.25622579919290
C           -6.25200956025506       -1.14458061924437        5.73554119746234
C           -4.51826735030287        0.36195215019105        4.81301060329935
C           -2.80301551044750        1.85998005861855        4.18870490296047
C           -1.36301253695907        2.25495608538418        4.47531685444784
C            1.44232114139724        3.43306893672120        2.78654254358374
C            1.14523755177448        2.77800425575859        1.43467886170892
C            2.50424535419084        3.64044197396696       -0.41327411338735
C            3.80188399908654        3.41345539961280       -1.19809395177738
C            4.75847367413447        4.60268202426941       -0.99966239804992
C            5.99050663671970        4.45416542086360       -1.88865470501221
C            5.17089919951889        4.65829704913609        0.47109216242535
C            3.56445602408514        1.84128277420629       -2.97582195133055
C            3.30429136143445        1.44495766774749       -4.44431388648511
C            3.05834529952539       -0.06206299860906       -4.54558371318083
C            2.91195769253054       -0.48367590721009       -6.00625818589862
C            4.82058667210687       -0.98507395724859       -7.41198456996707
C            5.94121551418066       -0.50165154467125       -8.17689421346685
C            6.93032107448570       -0.41534088552859       -8.86358010713163
C            8.13058531663214       -0.21617241608168       -9.67973118008405
C            8.27313622819557        2.18553249512882       -9.24019551322134
C            7.23467969847662        1.44308626133375      -11.24941298627101
C            9.35520753028677       -0.50382136728006       -8.79198544432296
C            8.10348132224725       -1.26436735089558      -10.80458878941606
C            4.31814021363375        1.34414094647752       -6.75310914645131
C            4.50676046247747        1.83485750105577       -5.31364294937115
C            2.90502847116147        4.20209136876091       -3.37121025267781
C            0.63767580131808        1.33691430487646        1.49589983020272
C            0.31881531723816        0.82085563743221        0.08006102592691
C           -0.43342436224843       -0.51233687153168        0.16710555384854
C           -2.50577024010261        0.64375544151847        0.01147211675386
C           -1.74635421222947        1.95593468922005       -0.17579346193753
C            0.57951485291872        4.31435012171827        4.89241015780735
C            0.11153003490964        3.47121769374314        6.07532128924060
C           -1.31786961612037        2.99667911984762        5.82519708667857
C           -3.53063968223698       -2.44781672499281        3.11460131017642
C           -3.93150843537524       -3.49130011860105        2.24188782203945
C           -3.55695245787245       -3.49606662092454        0.90252601804625
C           -2.81436442328067       -2.43507902114419        0.43250125517032
C           -2.41663408841799       -1.39411565898456        1.28268772473300
C           -2.74385934082243       -1.41097697682331        2.62106048769177
F            2.15220046533906        2.07728222344754       -4.93492779476935
H           -8.71865465328161       -2.83747192799787        5.55066895151155
H           -9.51142111978067       -2.87000544599025        3.97325141971065
H           -9.68416696573215       -4.24342129202178        5.08685548207806
H           -7.15238237031778       -3.39566076077237        3.60745893901826
H           -8.68436323368412       -5.60591635182739        1.34424571015947
H           -9.65236820102145       -4.33360896111190        2.12538407342573
H           -8.00696499683036       -3.96510253447690        1.53759660017657
H           -7.56083933940403       -6.58465690508123        7.84381620696361
H           -5.08209860291610       -6.41284168089272        8.12732113264525
H           -3.79026151017253       -5.14673499665257        6.40282357366765
H           -6.01727933768626       -5.97002632458195        2.99175158969181
H           -5.26333545499675       -5.63128620145068        1.42708760557119
H           -4.28188456028689       -7.67978452357350        2.41413079426178
H           -3.05397648133493       -6.40781313504094        2.35065245854540
H           -3.84935935882843       -6.79649369981930        3.88051015978877
H           -3.99978865669728       -2.60982653663920        6.50690118978603
H           -2.83065049952019       -1.59125445720957        5.65396605016903
H           -3.49169758396226        0.14687772782009        7.35439681910842
H           -5.16494883314466        0.70463835615376        7.43750745603840
H           -4.74494922327007       -0.90843841816632        8.01268165224885
H           -6.46531950091237       -1.95940965594306        6.42285549215830
H           -6.90899100346503       -0.31085377496879        5.97008167379211
H           -6.46894852491988       -1.48049871468270        4.72567407472991
H           -5.19690538247521        1.20938199941944        4.95283584978117
H           -4.66066848461405       -0.02467075195626        3.79943021478246
H           -0.75153116475859        1.34924495918702        4.54174598632690
H           -1.50720625834728        3.82706658620039        3.18623118128220
H            0.41271596976548        3.41150352876191        0.92049849176622
H            3.07559688513663        2.16881977425950        0.87480732307287
H            4.29532579104650        2.51161115092568       -0.82316184798007
H            4.22733568594098        5.52930852420488       -1.23714564864913
H            6.70128232382353        5.24531548755504       -1.66984694919013
H            6.46920939829991        3.49535126139831       -1.70050132194639
H            5.73029235569665        4.50430163874207       -2.94173836946980
H            4.30389460855325        4.73424173499929        1.12442527087092
H            5.72784039119910        3.76517313560172        0.74401326064736
H            5.80351124560286        5.52394423481472        0.64397273904698
H            3.89385428502734       -0.57893335747300       -4.07517131429327
H            2.14996421641362       -0.31248078828184       -3.99687908656301
H            2.01738581486496       -0.01818389975965       -6.43459498489570
H            2.82502800822017       -1.56898463550108       -6.08289350698782
H            8.41720778940046        3.13765873568424       -9.74814922861720
H            7.34755256907455        2.24410110514341       -8.64635107223391
H            9.11304712922055        2.03339480978254       -8.56935571760533
H            7.35163294940211        0.78642131184457      -12.10665870703870
H            6.20392688704349        1.36117450283076      -10.87102979547529
H            7.39612341796389        2.46464829937527      -11.58983483862683
H            9.30878025988818        0.03997992365284       -7.85305482168005
H            9.39438144994756       -1.56453427419410       -8.55947622055242
H           10.25488805482648       -0.22143109901661       -9.33072782969069
H            7.17017502889991       -1.23360155569248      -11.35955629764266
H            8.93558090130745       -1.08645602436085      -11.47970100737206
H            8.19812138370773       -2.25824261714421      -10.37477207413485
H            5.21093152961614        1.55791816171584       -7.34336405353368
H            3.45882460550926        1.85910735196948       -7.19871262766356
H            4.64238077892699        2.91563764893313       -5.31874931546680
H            5.39068292705712        1.37372336492487       -4.87207146641240
H            1.84795050212876        4.30841873287887       -3.11840825047666
H            3.40836919500805        5.13002684706113       -3.11822122721621
H            2.99869536036806        4.03000467482015       -4.43596996691978
H            1.39859289183921        0.69384611078134        1.93700653683985
H           -0.26916747848201        1.28431636495754        2.09217997874341
H            1.24204093275512        0.69472575170998       -0.49738956433782
H            0.13410162388100       -1.23085656539324        0.75842769369245
H           -0.56082973497206       -0.90992583862500       -0.85530927794066
H           -2.73583697039403        0.20310505485292       -0.97544161472692
H           -3.44211653346415        0.84560067646241        0.53557125066079
H           -1.70762192754803        2.48320905648594        0.78439524308964
H           -2.24107414903764        2.58741588224775       -0.91499821736126
H            1.63281035474355        4.58059847024977        4.97760783566094
H           -0.01757931001245        5.23052219152345        4.82015937283578
H            0.15998431035793        4.06651923785803        6.98581279563191
H            0.77033602783265        2.60939399169628        6.18768164771276
H           -1.99585133055680        3.85318112648686        5.78666502847894
H           -1.64925150613237        2.32851128998358        6.61885210332943
H           -3.84405193780103       -4.29594364958459        0.23719912321486
H           -2.53097158249727       -2.40186454068795       -0.60951670335829
H           -2.38523120038795       -0.61831071434436        3.25441442670359
