151
 energy: -221.326898857640 gnorm: 0.004024115823 xtb: 6.7.1 (edcfbbe)
C           -6.86623848546456       -5.35246963293518        3.11835030209304
N           -4.54175745199780       -6.81331120176076        3.75245928889132
O           -5.76675118413608       -6.25550048212846        1.10046859286738
C           -5.65214030086415       -5.34416406034440        2.19048626795024
N           -2.88210561307285       -4.00886583063792        0.55502106042962
O           -2.32668837558725        0.63313302584117        3.90858547085054
C           -6.79455868748829       -5.95689498620931        0.18015977413519
N           -0.04232798464156        3.32189414563994        3.38556726837427
O           -0.43842508721616        0.71844067101446       -4.50682144759675
C           -4.40796670768210       -5.77062841788571        2.94408081175464
N            1.30147824257804        3.56319507591169        3.69798129698329
O            3.85375104746780        2.87130379379929       -2.02141786099888
C           -3.49370587604599       -7.24417331719762        4.42989127575300
N            2.93189156615528        4.11754629815724        0.47015822090898
O            2.49136277004925        6.29282869335667        0.02779345675165
C           -2.24239683001727       -6.65110509190804        4.35292004314208
N            3.85860704860122        5.08092159371232       -2.41524955791387
O           -0.07461981822072        3.65669063476657       -0.98653993862832
C           -2.09688561283305       -5.56083011769467        3.51641521929360
N            1.43221537989328        1.52822483323454       -5.50883671440568
O            3.40665445818972        3.98057656364282        3.04534736790984
C           -3.19095990755817       -5.10348285174810        2.78006329941022
N            3.60254451077833       -3.27100809961310       -4.66543502958324
O           -2.75795840326525        2.78179582004607        3.41729062310414
C           -2.98798877952685       -3.92676740882059        1.92550531660414
N           -1.05664614247712        1.10976168510111       -0.38541615842160
C           -2.98773614189564       -5.21330600459806       -0.23032134654555
C           -1.62282475835560       -5.86336773604957       -0.45179062742613
C           -2.71085332449384       -2.64923392208575        2.35412929319466
C           -2.71921357665232       -2.16095121082329        3.76680349005094
C           -3.88346065653180       -1.21558662583624        4.15662671602320
C           -3.95598341498586       -1.14741181814293        5.68517313503460
C           -5.20829211053125       -1.73501997125389        3.59989262652566
C           -3.66515749707421        0.20415160514575        3.61252846750372
C           -1.99383101613712        1.89671409761574        3.73037604555582
C           -0.50986434855301        2.08702577254340        4.00772729244152
C            2.23137858080519        3.78228613092514        2.75423296971137
C            1.77741923514668        3.81660752088387        1.28944484935190
C            3.18175825039541        5.29117935955628       -0.11206328616226
C            4.39585663557319        5.25583331153755       -1.05997552565154
C            5.30793378589286        6.46969552869728       -0.85678187934747
C            6.46502067541674        6.47416812787347       -1.85174656352659
C            5.84752246176659        6.40982066262366        0.57368979331282
C            3.63777460136416        3.81684686660949       -2.78759067174367
C            3.09653330869424        3.48198959520472       -4.19574412908388
C            1.56386291249891        3.56963329921535       -4.20616376478516
C            0.96106172952877        2.89202220868278       -5.43849841831524
C            0.71290477851508        0.55261196279540       -4.92200371306694
C            1.34350851471822       -0.73440061913429       -4.81024206682854
C            1.70570250495534       -1.86034236491575       -4.58133490954977
C            2.16682198205146       -3.22846021922614       -4.36201873882684
C            4.18483720652341       -4.59502689888169       -4.74291030870679
C            4.40507359091766       -2.41137088128611       -3.81708922863585
C            1.79996677442405       -3.61698287586650       -2.91373023663413
C            1.37622638600665       -4.10971624133395       -5.34254661167498
C            2.85409105876672        1.45190609501824       -5.74513566491245
C            3.61005295338783        2.08476962410557       -4.57528113965085
C            3.39472899222498        6.25253418302267       -3.12916590834762
C            1.16905129684920        2.49832322268102        0.80709042832319
C            0.79639190871167        2.57725318658544       -0.68229298217715
C            0.16476657853322        1.25946937827775       -1.14050266920194
C           -1.99844907888468        2.15081741763576       -0.74786678180723
C           -1.36956469176390        3.50755967739431       -0.41990190396075
C            1.65076343952423        3.59037506177053        5.11395849789022
C            1.22418031496196        2.28333929831910        5.77669756338188
C           -0.26480931836230        2.05836518553087        5.52786448033254
C           -2.37387586621870       -1.90783931226948        1.18682489111500
C           -2.48695139964427       -2.78903219894295        0.08140342249171
C           -2.16991442115137       -2.36998358217897       -1.20762336949842
C           -1.72578376542639       -1.07629371675271       -1.38905322069774
C           -1.58232848651651       -0.20950848741163       -0.29657915283357
C           -1.89600893971387       -0.62035850814112        0.98041427113725
F            3.59920763777185        4.39297123589396       -5.13195433647152
H           -6.65891224611317       -4.72721618393078        3.98145419189005
H           -7.74508548369564       -4.96531959688088        2.61081456677042
H           -7.05009229858426       -6.36765270815356        3.45564042561375
H           -5.49916791957329       -4.32910224675827        1.78590837028124
H           -6.62404203389529       -6.60871535678569       -0.67400117628548
H           -7.78288269464307       -6.16102224720150        0.59937452841588
H           -6.74147869571288       -4.90993630167952       -0.13769725558303
H           -3.67157386331467       -8.09911937679492        5.06795556804691
H           -1.41306901644390       -7.02830093924172        4.92888892759504
H           -1.14696579564998       -5.05576511503176        3.41729626037042
H           -3.65467370476202       -5.90893536375684        0.28375396948061
H           -3.43687662616630       -4.95311085602448       -1.19284641132382
H           -1.73323786199982       -6.74350006574408       -1.07802861750658
H           -0.94541995518124       -5.16508840298299       -0.93833403148433
H           -1.18869376540413       -6.16275721347694        0.49905203733843
H           -2.77045695632317       -3.03144957699324        4.42381992992082
H           -1.78194859321890       -1.63844315338849        3.96605172949542
H           -4.14885581706618       -2.13327093893307        6.09929743754856
H           -3.01830082387278       -0.77652824840936        6.09082401405015
H           -4.75702514314928       -0.48182683233357        5.99797267120712
H           -5.18196414234385       -1.76159833988459        2.51308186836690
H           -5.39129411888035       -2.74158831247308        3.96481094263319
H           -6.03059879293714       -1.09509358466377        3.90935248979759
H           -4.37069329836047        0.91048788495052        4.06054979222030
H           -3.79928452684580        0.22815824369268        2.52718443955999
H            0.03321001580414        1.25399103056273        3.54717546762614
H           -0.62545387569455        4.10062886749995        3.69692107388828
H            1.06359929386043        4.63813509061036        1.15972641375739
H            3.55740330186390        3.34412294998160        0.29371009832192
H            4.97992282273478        4.35346093255388       -0.85239218720458
H            4.72198866619483        7.38710026963720       -0.95634770616306
H            7.13551834784619        7.29891718633709       -1.62729088095613
H            7.02480922751850        5.54455300623111       -1.77886552407840
H            6.11520076763508        6.58576475083100       -2.87309609013553
H            6.48722995692351        5.54021818129152        0.70528014784941
H            6.42530283230460        7.30343119150895        0.79217923773381
H            5.03232066095448        6.34324399497952        1.29222422780897
H            1.18171438262593        3.08375225392047       -3.30873994348029
H            1.24669446948259        4.61099230332395       -4.18145381217261
H            1.26065558836859        3.41427661360663       -6.34926463781457
H           -0.12692364691365        2.88116843442241       -5.35760101419287
H            3.68288054071822       -5.18274925510222       -5.50572313219116
H            5.22776018802120       -4.48126161000195       -5.03629036713086
H            4.15839480494155       -5.14046052059947       -3.78752443716947
H            4.61985226396222       -2.85617372644502       -2.83381896248824
H            5.35389287555193       -2.22155394692748       -4.31907100233588
H            3.89741369869955       -1.45995301023444       -3.66647599563594
H            2.10969721754666       -4.63944491380728       -2.71151963498155
H            2.27806400587387       -2.95056900845294       -2.19965401784429
H            0.72386024815345       -3.54095070073855       -2.77846503731023
H            0.32254152288363       -3.84764527287367       -5.28954050083559
H            1.72630639416417       -3.94016113098915       -6.35666543527738
H            1.48369177083336       -5.15947143126342       -5.08724609782715
H            3.15322919798201        0.40907824224287       -5.85631312909867
H            3.07148962438663        1.99219255961541       -6.67008883605738
H            4.66971766833706        2.16739781664971       -4.81879575112328
H            3.51080176206986        1.45487241389817       -3.68932852285595
H            4.10009840751836        6.54525904144574       -3.90722367884719
H            2.42576730499214        6.07153365014060       -3.58553735789453
H            3.27464144382010        7.06143702882522       -2.41402386929474
H            1.89757792442550        1.69634048321200        0.92695961319567
H            0.27818878465662        2.26338388865395        1.38125328389267
H            1.70080402965313        2.77835501320457       -1.26188591660406
H            0.83155922380794        0.42387406728726       -0.92291279433100
H           -0.01485169640145        1.29424659621724       -2.22919485917280
H           -2.25640616943594        2.10500104183584       -1.82138964027458
H           -2.90929835652507        2.02862266528512       -0.15874843275390
H           -1.32238649055850        3.63270731600896        0.66880969346599
H           -1.96132383411890        4.31888941950543       -0.84691401141017
H            2.72830252932047        3.74109786923481        5.17518497700078
H            1.14021774927154        4.43840365260352        5.58301635697079
H            1.43140446403923        2.33235678119334        6.84461121068462
H            1.79611191265711        1.45863588493823        5.34932493867724
H           -0.84971743440227        2.84947238352651        6.00318177841502
H           -0.58669274512051        1.09871652578099        5.92933932665231
H           -2.25368320041705       -3.03705628941032       -2.05252931858445
H           -1.46299905783372       -0.72799243673342       -2.37837104817152
H           -1.70938626955068        0.05831893155840        1.79243174234155
