151
 energy: -221.311195682760 gnorm: 0.004597468324 xtb: 6.7.1 (edcfbbe)
C           -6.57086162570579       -5.55388751084168        4.39222382798936
N           -4.84166884582410       -6.94594643850954        2.63802729198701
O           -7.21878967897122       -5.36440506339855        2.01476893565763
C           -6.24234402777136       -5.02303682945910        2.99699861327516
N           -4.77465878217951       -2.80081152886177        0.80151219628574
O           -1.15975198845228       -0.24594062623495        4.45008909551386
C           -8.51412021493974       -4.85472007578455        2.25547845396931
N            0.71804540950411        2.71723988617030        3.69144558610242
O            2.63916585370326       -1.44094464483873       -6.78904748333457
C           -4.94524252972330       -5.63047791658237        2.50211099075883
N            2.01369386467192        2.94271730195153        3.20894393983990
O            3.92729331151300        3.65623130175946       -2.54564583256156
C           -3.74763871864080       -7.55760600689805        2.22325722346399
N            1.81757914958514        4.64215250516213        0.01155631048146
O            0.67241321845993        6.55893104964678       -0.41008886966555
C           -2.67349600374500       -6.88819856882687        1.65675444689197
N            1.91461536522040        4.63750127524272       -2.78801708918001
O           -1.69456835379700        4.89161285416827        1.42815085824482
C           -2.77189457080128       -5.51706208163406        1.51552909354356
N            3.20108905958402        0.05416921545559       -5.19031864264284
O            3.39257431005632        3.32553653155508        1.49184964192641
C           -3.93004533234870       -4.85672346066697        1.93101876223159
N            7.60010569248110       -3.11665529963966       -4.87521812568234
O           -1.56031643758797        1.87733540129974        5.05708015166532
C           -3.97604674956442       -3.40046793053962        1.74957191263483
N           -2.70505171867829        2.30562824607286        1.12991607512788
C           -5.62676783609020       -3.48347797292770       -0.13987767266083
C           -4.86201363126862       -3.86656349538564       -1.40575869064787
C           -3.15293365422507       -2.47080198695907        2.34565209715908
C           -2.15045553793927       -2.73750577363904        3.42452239901316
C           -2.50931648555047       -2.22356350535813        4.84074876744783
C           -1.50147132428293       -2.80238681293059        5.83878043479549
C           -3.92493455982793       -2.65231810185535        5.22783349639255
C           -2.44030914039347       -0.69188148651335        4.91935353513143
C           -0.85969791041047        1.03650305124398        4.54125101263638
C            0.51442747398999        1.28984635779496        3.93962321438746
C            2.26345497803402        3.39943124700464        1.97401215431700
C            1.15669866033874        4.11918397621341        1.19044971609196
C            1.53120044286546        5.73950570901850       -0.69574489218957
C            2.36078139289719        5.78600752996177       -1.99626250376473
C            2.26205885458171        7.12532509728568       -2.73779195015050
C            2.89399718578090        7.01164728287586       -4.12298153396709
C            2.96369048907005        8.20546645934832       -1.91540718125502
C            2.74902111317158        3.59515883850256       -2.89668867480397
C            2.25654051923804        2.27067987750871       -3.51559800407492
C            3.07440719393478        1.08213229211995       -2.97919977516799
C            3.97884945555799        0.46888520926692       -4.04327941352993
C            3.35295373353263       -1.11378609750895       -5.83476355878000
C            4.40982278219242       -1.97520589959011       -5.37569782412113
C            5.20730728037145       -2.84787167762332       -5.13879651255061
C            6.28787067091723       -3.78371485894498       -4.82623613072396
C            7.96798518165297       -2.65068784993456       -6.20109676998971
C            7.74472401624128       -2.04162200321441       -3.90958355362757
C            6.04958317439938       -4.37145955078849       -3.42457849688781
C            6.23513927346902       -4.93250285000015       -5.84620399764980
C            2.13372892921309        0.93922748865595       -5.62149024073429
C            2.32544193667173        2.33293893337217       -5.04468973594978
C            0.51529219742966        4.63613424887392       -3.16456260408844
C           -0.01070834949684        3.21608815550030        0.76664675442427
C           -1.25330700959749        4.04077738709129        0.38274048237306
C           -2.38850743600420        3.09422410173389       -0.03630286124305
C           -3.24572042586073        3.14641447018640        2.17961628542349
C           -2.20204845770388        4.19885492049429        2.55797723323899
C            3.10355143211107        2.45717795149003        4.04952203832740
C            2.95905997649840        0.95813873940454        4.29182530511834
C            1.57687988970599        0.68732685189769        4.87839035055309
C           -3.42835151517212       -1.23046605320789        1.69895754058966
C           -4.43777529495884       -1.47701064765673        0.73433254747297
C           -4.89157392486478       -0.46680611336717       -0.10751901246085
C           -4.34175630003350        0.79212931771374        0.01750312029938
C           -3.33380044995102        1.04804817280360        0.95805312090302
C           -2.86890735902160        0.03965778883553        1.77704816249736
F            0.92352571195900        2.03334833540311       -3.14411080617779
H           -6.74287776254258       -6.62460253480465        4.33504794551612
H           -5.72737028107489       -5.36565541585532        5.04963348224161
H           -7.44731047499556       -5.05884549902135        4.80001488563170
H           -6.14623605005391       -3.92421137008226        3.03173336870767
H           -8.99614518796562       -5.35927100606024        3.09704514069866
H           -8.48066797998093       -3.77576035534851        2.44457769574419
H           -9.07993291725819       -5.05089663579957        1.34735951176724
H           -3.73726937487242       -8.63026185758210        2.36035290564921
H           -1.79314256941276       -7.42090095288326        1.33566286146705
H           -1.96841519588291       -4.94431256882180        1.07530993891325
H           -6.03684716742899       -4.37808054449440        0.33401433802441
H           -6.45511040834426       -2.81650308793419       -0.39148938508032
H           -5.53422617528523       -4.33998301233888       -2.11485960494826
H           -4.42692057757213       -2.98281427840022       -1.86721768346286
H           -4.06166819493162       -4.56275162316131       -1.16600165041862
H           -2.01510937065875       -3.81841649811483        3.49702168620681
H           -1.19554629387230       -2.29167862387731        3.13939573032348
H           -1.75003746741618       -2.48914841467960        6.84994978430701
H           -1.51182801652018       -3.88833226665097        5.80383686191372
H           -0.49777689226584       -2.45798838522450        5.60456377213553
H           -3.94703003180953       -3.71603032700420        5.44552872122687
H           -4.26042079434452       -2.11302666556751        6.10999588181361
H           -4.62040786544682       -2.45060249479776        4.41753940917420
H           -2.57078888946984       -0.34984265444815        5.95098805944412
H           -3.22005697790338       -0.23271235062534        4.30497671458106
H            0.56402835475989        0.77536498295806        2.97265847277707
H            0.56291245011676        3.24019652675172        4.55411265970737
H            0.75996739712261        4.94447398836609        1.79242348417920
H            2.65595087302897        4.11716169849442       -0.22193097145362
H            3.41247236859201        5.59992975787408       -1.75307068832159
H            1.20967870722766        7.41127911493738       -2.82776399656401
H            2.35264155178490        6.30508382508687       -4.74651506022731
H            2.88930679607417        7.98062776674572       -4.61398523046968
H            3.92423196066478        6.67186253670908       -4.03353669062769
H            2.55113830810609        8.24092483777942       -0.90929948606677
H            4.03158505633241        8.00476069659776       -1.85137408591972
H            2.81490880457261        9.17566835234736       -2.37980622594990
H            3.69110141731945        1.41044716251039       -2.14159872825836
H            2.36847698217091        0.33004684868711       -2.62262386637334
H            4.48811984014444       -0.40553423881740       -3.63331959293382
H            4.73869994599942        1.19969296425282       -4.34415331402953
H            8.92654819736104       -2.14039892159277       -6.12973138170333
H            8.08823275104234       -3.49431674112410       -6.87485256297177
H            7.23350797894910       -1.95116001453056       -6.62881478306938
H            7.03877388906654       -1.21480324585099       -4.08027378791459
H            7.61017483118181       -2.42208081235156       -2.90150180513684
H            8.75766857253752       -1.65033316819182       -3.98722977618917
H            6.93434293402976       -4.92105679072272       -3.11776832262891
H            5.83310719429205       -3.59620592669752       -2.69548133512362
H            5.20073128485771       -5.04871608744740       -3.45479777948172
H            7.11261050190791       -5.56116636455885       -5.72621604457382
H            5.34234601785652       -5.52797541510140       -5.67530287766137
H            6.19154602530733       -4.55844341252426       -6.86543221157429
H            2.12525583395186        0.95756623631421       -6.71575616225631
H            1.16802178859200        0.53292706004990       -5.29233175092550
H            1.54113790892273        2.98379172238141       -5.42823560105168
H            3.29072422452480        2.74695476353192       -5.33544236626980
H            0.16358010596897        5.66327377024826       -3.18452720726665
H            0.37627270516191        4.20165893513368       -4.15050518314791
H           -0.09086232641413        4.08126427144842       -2.44626655410924
H            0.29148736904056        2.61671999167477       -0.09316287304022
H           -0.28872464370016        2.55051562339002        1.57882319348367
H           -1.01627006059565        4.73798598597607       -0.42569051699347
H           -2.05628971517454        2.43658637308832       -0.84067023089185
H           -3.24191614081007        3.69893401397139       -0.39118056814180
H           -4.17568956602498        3.64465554004283        1.85001381082610
H           -3.46502773240341        2.53785714909725        3.05803171019671
H           -1.38556453732711        3.71823931368118        3.10752960650584
H           -2.65112827541130        4.96962967958504        3.18617887603767
H            4.03838288418214        2.69364914634442        3.54338311782862
H            3.05439173248673        2.99951126973895        4.99896057428473
H            3.73805754750017        0.62182327544319        4.97407514713271
H            3.07263946763737        0.42756634946741        3.34540756824594
H            1.49066964368413        1.15150918032506        5.86383514937779
H            1.40044875553991       -0.38222460397236        4.98214368976349
H           -5.65120895336815       -0.65514494278423       -0.85104580791937
H           -4.67992136499800        1.58993722070341       -0.62688087735707
H           -2.04685172523987        0.25631353809938        2.43395413688823
