151
 energy: -221.321423962176 gnorm: 0.004365885659 xtb: 6.7.1 (edcfbbe)
C           -8.77186487392134       -4.26553370213397        3.90779533265813
N           -7.53742950914284       -5.43165181546918        6.17280787679260
O           -7.38552095495347       -6.22195938266526        3.34432023636765
C           -7.37546557848420       -4.88073409514134        3.83625148641247
N           -4.13745878376713       -4.67154085867273        3.30597002104542
O           -3.62834316299994        0.91690164782364        4.44165191517659
C           -7.72056302289034       -6.35828788251924        1.98110661854105
N           -1.20602179522899        3.16223931902476        3.10345687745516
O            3.00899936438813        1.64768999452186       -9.03352390876818
C           -6.74872676789280       -4.96968753627686        5.21481552379631
N            0.02658232642450        3.69046591127597        3.50165542163375
O            4.01244347546881        1.81532966487794       -2.49350353150804
C           -7.06052279020138       -5.57093560118632        7.39727156172981
N            2.24137172347245        3.00826242246022        0.67081478223358
O            1.62832042761097        4.77244359715795       -0.58709980021797
C           -5.75244948915188       -5.26683474754606        7.73924918412957
N            3.85476313888602        4.05461009844538       -2.29150311543057
O           -0.40760864558607        1.54029511870055       -0.74032353111064
C           -4.92366522697757       -4.77307324280526        6.74818159608583
N            4.32148343777463        2.17432594344537       -7.25949195824492
O            2.19815058205674        4.06480079212820        3.09044950937256
C           -5.41408740264649       -4.60832856104038        5.45326745448188
N            7.61572099319422       -0.78189668614174      -10.57682045471057
O           -3.87801331092837        2.53682672756638        2.90966520232647
C           -4.55377727659935       -3.99908367132008        4.43445915811219
N           -1.43924155233544       -0.52600548274275        0.84594294747536
C           -4.22898928639890       -6.09649832707442        3.10564123615803
C           -3.03402270223670       -6.81869666778735        3.72543103036041
C           -4.07731272601833       -2.70683685806139        4.42882666654712
C           -4.23340593058841       -1.68608110210400        5.51084508969970
C           -5.31193339434733       -0.59840240613452        5.30103168549960
C           -5.44266483622251        0.20333061179428        6.59915801831312
C           -6.65314839607573       -1.23889072732597        4.94984730086736
C           -4.92203966495642        0.35726543733092        4.16657740167567
C           -3.21698690131909        1.95461467818102        3.74070072642948
C           -1.80768913730858        2.34746903253463        4.15279282350861
C            1.12430450605571        3.58316994049954        2.73956805186706
C            0.99075548162011        2.87707752674769        1.38561869358347
C            2.47398175872157        3.95364519774201       -0.24470177845950
C            3.88675577027693        3.90828532348170       -0.83728378422243
C            4.80653255981547        4.95236872843702       -0.16985352224567
C            6.17909403230663        4.95933893496867       -0.84304924673972
C            4.97702263432456        4.63581030018861        1.31450186252936
C            4.01093839468103        2.93569468312256       -3.01042139538747
C            4.31169698734050        3.04519353038114       -4.51591972861472
C            3.06619578076544        3.16868532837997       -5.39586838038894
C            3.48941837396237        3.28763968941613       -6.86111860091038
C            4.02275810965134        1.45869721495325       -8.35848899404690
C            4.99084161781582        0.45607667732548       -8.72849098386175
C            5.75839721890432       -0.36079637982614       -9.16816191963221
C            6.71002802170561       -1.38681948012982       -9.59196426297858
C            8.54167584612249       -1.69824828948431      -11.20890414192383
C            8.31662803944206        0.39362565789121      -10.09998409106231
C            7.40813102348733       -1.92457213084835       -8.32404979962930
C            5.88430269508622       -2.50733635860751      -10.24437947616529
C            5.49914837137763        1.97228312992774       -6.44689620075083
C            5.11752430378500        1.82608969410740       -4.97399649795929
C            3.48637643036431        5.35846277809949       -2.80728419392937
C            0.62979818053782        1.39623617104713        1.49302449826099
C            0.43693516249939        0.76752167224733        0.09993980890148
C           -0.12682207346624       -0.65388801894877        0.25007184559984
C           -2.32525784549325        0.19222208687730       -0.05311404209175
C           -1.75353049518281        1.58835801441773       -0.29335512622912
C            0.05317228222213        4.43189313120006        4.75613404006367
C           -0.47426907200094        3.54734095494967        5.88139300364034
C           -1.87515116888426        3.06529225227536        5.51530891159892
C           -3.32971110076122       -2.56911490672327        3.22270731680402
C           -3.37255768771084       -3.82105283001684        2.55881937210553
C           -2.70830821832176       -4.01609404658012        1.35189230131247
C           -2.05265052971128       -2.94482221013247        0.78326260756546
C           -2.02991769223537       -1.69255141624437        1.41340459807370
C           -2.63295474216410       -1.51493992325841        2.64048472429027
F            5.13214482781160        4.17000793098614       -4.71317222884178
H           -9.40491422194264       -4.89197602927459        4.52786197345598
H           -8.70716552942931       -3.27540645028350        4.34742963431022
H           -9.20126693033541       -4.17923261989431        2.91386478940102
H           -6.73634684312827       -4.27009261318307        3.17729948514342
H           -7.50842893243997       -7.39525591917593        1.72871092295105
H           -8.77813437990541       -6.15238782287575        1.79881844021053
H           -7.10915069460886       -5.69432234395933        1.35977491173814
H           -7.76474786126260       -5.94540012241168        8.12789122685597
H           -5.39855712725519       -5.41015223046472        8.74675088027162
H           -3.89531275194097       -4.52152795863147        6.96325701711707
H           -5.15552792899404       -6.45937123600192        3.55494746566905
H           -4.26797866024698       -6.28871047855404        2.03092608552227
H           -3.02492134357950       -6.67191795934874        4.80286299257091
H           -3.09832197015499       -7.88281937184975        3.51971793060276
H           -2.10384195180519       -6.43400945819807        3.31380900677715
H           -4.48307573633612       -2.20592662577532        6.43696801349126
H           -3.27449364790150       -1.18325428182287        5.64788368632739
H           -4.49027977110082        0.65707232749690        6.85882483288676
H           -6.18304994028191        0.99184025553775        6.48624817377745
H           -5.75328517745889       -0.44427832837977        7.41398729751207
H           -6.95120627083659       -1.92764886299948        5.73639741766422
H           -7.42373051147412       -0.47958494795585        4.84214656959615
H           -6.57851163723067       -1.79262350952585        4.01777564954698
H           -5.64567640975007        1.17232798359614        4.07104383796891
H           -4.86959001969007       -0.17349163327574        3.21146700263944
H           -1.20708507385283        1.43766868178151        4.26183460990300
H           -1.85237480538084        3.90711790266871        2.83843046225625
H            0.23796846310860        3.41133973640481        0.79572659231896
H            3.00088767965701        2.41895579113262        0.97643309772634
H            4.30356970957911        2.91156781152166       -0.65808948232537
H            4.33719379199412        5.93627501199987       -0.25774535929367
H            6.80002327364733        5.73412412892870       -0.40199737827380
H            6.66813969422907        3.99849448460879       -0.69601177508109
H            6.11321788716904        5.14049631305827       -1.91268666122732
H            5.45801242485503        3.66883531993598        1.44431094440167
H            5.60634491818486        5.39253121308726        1.77430584889292
H            4.02575465695898        4.62658134993084        1.84061440621906
H            2.45847894043836        2.27676783187595       -5.24056746417318
H            2.46987906947527        4.03886401367376       -5.12468106655873
H            4.05560967996577        4.21675517754038       -6.99647261471187
H            2.61605812115297        3.30249982190446       -7.51582674815080
H            9.30635619600437       -2.08782709502458      -10.51977649925792
H            8.00569697976989       -2.52947809611621      -11.65598925569962
H            9.05143660898546       -1.15656186803399      -12.00488860751901
H            9.15925529911895        0.15429577406611       -9.43437365299899
H            8.70889746121379        0.92948832269413      -10.96436274444111
H            7.62332411627004        1.04759886267655       -9.57519036443996
H            6.66313288272735       -2.32016077431173       -7.63935767173301
H            8.09827861576709       -2.72128653683773       -8.58823708647542
H            7.95482426215868       -1.13148141188668       -7.81952004603326
H            5.02015329168432       -2.72766878435913       -9.62255748370516
H            5.53595495198198       -2.18430100539884      -11.22128704399055
H            6.47316592312665       -3.41407974775505      -10.34718150560028
H            6.01832337390286        1.07689172700936       -6.78825207837090
H            6.16409202493497        2.83689543032351       -6.55964471041404
H            6.01916797045484        1.73671914596733       -4.36819697699385
H            4.50854545411515        0.93794123829603       -4.81147027422754
H            4.16766242596120        6.11657180947604       -2.42835042619297
H            3.51758881418388        5.38468049730183       -3.88809341744296
H            2.47602048105830        5.59070011800807       -2.46554600282643
H            1.42760034927696        0.86071426756101        2.00685553001410
H           -0.29522191380815        1.28103611588194        2.05097102300503
H            1.38842239434836        0.74272402213040       -0.44257853895251
H            0.50988797528018       -1.24316696660348        0.91027875969690
H           -0.15269639408141       -1.12890764809253       -0.74633045540159
H           -2.43090722242639       -0.33550038155766       -1.01917599876967
H           -3.31054037694104        0.28268479977724        0.40719328989502
H           -1.83297845125688        2.17533755625471        0.62960950899426
H           -2.30017642558414        2.09675130386529       -1.08925540759597
H            1.08491689663074        4.73701572235675        4.92856589030735
H           -0.57305353935347        5.32437470183530        4.64928791719781
H           -0.49451935937455        4.11170039387111        6.81216183304180
H            0.18950758427166        2.69064835665788        6.00767041448567
H           -2.55628809298959        3.91673166002591        5.44260773581571
H           -2.25921765820154        2.37612609788612        6.26587990864010
H           -2.71309969892952       -4.97544476809229        0.85716010202133
H           -1.54947078320297       -3.06781505390414       -0.16453178860367
H           -2.55351473401032       -0.55836434078748        3.12427184365859
