151
 energy: -221.323800663387 gnorm: 0.009120441700 xtb: 6.7.1 (edcfbbe)
C           -8.82215863769048       -4.03865437909678        4.28410268424615
N           -7.05491826996321       -5.73178026692380        5.70715658512225
O           -7.72032629185618       -5.72858111557809        2.86704809372296
C           -7.52699705906385       -4.55867398551754        3.66308047513089
N           -4.53622075095208       -4.03671248370967        2.38233042319852
O           -3.11186069929400        0.95810019784707        4.90369248658328
C           -8.42987364447970       -5.52495106465382        1.66525135572992
N           -0.58874078364421        3.16922207009742        3.69840393393708
O            5.05929833013582       -2.90020091600686       -6.28228787900899
C           -6.54817743608771       -4.97152538477122        4.74723319175882
N            0.74716047863812        3.46498161636501        3.98955192540460
O            4.43768418607664        1.05440189746291       -1.45313557258407
C           -6.27515778955584       -6.15227114868106        6.68602125297893
N            2.53422725329110        3.07406003062269        0.81880462504650
O            1.94695274230748        4.84977917555570       -0.44199816707532
C           -4.92838957421032       -5.83288549817289        6.77141017078767
N            3.54776740710156        2.96291432022193       -2.24337855333704
O           -0.47516231496536        2.59442737970238       -0.54352668218545
C           -4.39025541927804       -5.04098808797421        5.77467911721655
N            4.14858249662980       -0.88686867756652       -5.80450947561841
O            2.89824286632539        3.58643479244480        3.36773030870960
C           -5.19843634383511       -4.59345230610498        4.72843887737963
N            7.55218687466461        0.89567963635995       -9.57108803578993
O           -3.31206749568286        2.90416192053797        3.81224543193878
C           -4.60512443010830       -3.71254683957656        3.71973517037214
N           -1.77128323996443        0.39860168200658        0.59723057931660
C           -4.74721017333475       -5.34975633374712        1.82583435231620
C           -3.44701473837982       -6.15223911301216        1.81862332721247
C           -4.02537016928215       -2.48361024301938        3.94742653726033
C           -3.90147685356824       -1.78106932661534        5.26087756434858
C           -4.87907967293131       -0.60507273478265        5.49615923397644
C           -4.83609344185011       -0.23853106311928        6.98193837837207
C           -6.29968521313685       -1.01428676016477        5.10698022630295
C           -4.48924530503008        0.62180014801628        4.66160899030897
C           -2.64297649461156        2.07906625434631        4.39287125124914
C           -1.15316669418916        2.22712994856883        4.66219064979776
C            1.72527685843085        3.36352839826436        3.07613859873014
C            1.33990441792050        3.03066948695750        1.63507824935492
C            2.72183274432137        3.93892971170503       -0.18125372769963
C            3.97403821516356        3.65458168759182       -1.02279175011077
C            4.76676437115989        4.93905931015058       -1.30088583796882
C            5.99783259175476        4.63851648669196       -2.15246853297589
C            5.18608194727200        5.55368197835574        0.03344368173335
C            3.83698544345773        1.66008251750318       -2.34360136447063
C            3.46489063418143        0.87990514619003       -3.62590207877435
C            3.72351224034755       -0.61346600928200       -3.41349500397145
C            3.39741776862106       -1.39890960418429       -4.68025791841149
C            4.91946654851883       -1.70296567497017       -6.54055025887999
C            5.57820989782957       -1.12565208870468       -7.68224214230783
C            6.15819010755127       -0.88744778474351       -8.71307757931469
C            6.93290288605546       -0.40960766977488       -9.86070148629545
C            8.46897240992775        0.86343066602595       -8.44524959172254
C            6.59626686565124        1.97809988700574       -9.41929752609647
C            8.02371663822241       -1.44614545197671      -10.17660603966318
C            6.00485519285583       -0.30001760514376      -11.08049702623467
C            3.91900281273232        0.50977377020332       -6.07791403038833
C            4.24515999212543        1.36810615370603       -4.84947775148856
C            2.77750078205875        3.75948023949780       -3.17808281915315
C            0.67007212994936        1.66885076565521        1.43619014522387
C            0.25482743437844        1.48871115095507       -0.03601812893681
C           -0.57469150583240        0.20976935772308       -0.19085212488766
C           -2.57189657217997        1.47547853119711        0.04459679623859
C           -1.74314339419556        2.75968415170682        0.07500322107018
C            1.03010221971586        3.94588344092462        5.33642688071515
C            0.53287300012754        2.93205260154541        6.36129905867490
C           -0.95256834081711        2.66652227708650        6.12608763871474
C           -3.55024180595212       -2.02917638415490        2.68273437903001
C           -3.88142992222851       -3.02748466791154        1.73235496867438
C           -3.53595906958328       -2.89400862358006        0.39193510489513
C           -2.85693638722790       -1.75953429268117        0.00367728466601
C           -2.49907345936654       -0.77715663841964        0.93702567235211
C           -2.82971803350736       -0.91352015515738        2.26843288024311
F            2.08742729983776        1.02723033479752       -3.86601199235990
H           -9.53885357763760       -3.77307409190113        3.51017653956802
H           -9.24293939586914       -4.80958268587406        4.92806719557248
H           -8.60633252811708       -3.15100779477825        4.87722658132227
H           -7.07631705732703       -3.77336940454914        3.03316876198569
H           -9.48706164019336       -5.31415544702180        1.84683287726400
H           -7.99014920880620       -4.70503054811029        1.08550182579871
H           -8.34138681827407       -6.45658901692813        1.10938358990434
H           -6.75965812086338       -6.76996736273564        7.43063240591859
H           -4.32436377486573       -6.19200201823892        7.58853539723662
H           -3.34372273214936       -4.77374723189210        5.78363549128786
H           -5.50424999583162       -5.87114046760124        2.41515128527537
H           -5.12321149531848       -5.23572735372587        0.80510905656687
H           -3.08298716823276       -6.28513803843114        2.83510592728486
H           -3.61510615749583       -7.12955300592399        1.37742040518569
H           -2.68383503324999       -5.63068524783888        1.24451430256600
H           -4.07552753089088       -2.50628507494565        6.05630590430868
H           -2.88438827408828       -1.39923611754016        5.36335835823420
H           -3.82218029707416        0.01244488908652        7.28080001234103
H           -5.47718551017115        0.61711094784446        7.18265844116013
H           -5.18221638152079       -1.07210182256531        7.58517020057799
H           -6.35344756818228       -1.25927036358830        4.04980305438114
H           -6.59906163935014       -1.89034563542393        5.67644439112848
H           -7.00027087828312       -0.21013401608781        5.31192508812372
H           -5.11054165004679        1.48372708577302        4.92040372505921
H           -4.60588915516764        0.42390314622830        3.59156505397194
H           -0.66771157186140        1.25698943325320        4.51426298025925
H           -1.15815112930523        4.01892271818746        3.69604550599540
H            0.68117434121872        3.82363948693002        1.26206998173607
H            3.22836109940606        2.36824381165157        1.01025463813731
H            4.61868956813063        2.95249767304279       -0.48448361423375
H            4.11549626285264        5.64949126842550       -1.81699925006972
H            6.57046959347676        5.54890028975501       -2.30652310157845
H            6.63160849990860        3.91209751054315       -1.64796020274643
H            5.72381647592963        4.23291115727779       -3.12242089311943
H            4.31785477014780        5.74642898900033        0.66033518459339
H            5.85381276939751        4.88517934306094        0.57039386477053
H            5.70095878411627        6.49482042226402       -0.13781314412384
H            4.76874933239257       -0.74405692379557       -3.13572107648850
H            3.10760252104965       -0.96924780776675       -2.58644819828030
H            2.32739645955933       -1.31176910387751       -4.90019155700587
H            3.65406932591330       -2.45223940632415       -4.55654489126936
H            7.98405943411898        0.56357339949867       -7.50439707069320
H            9.28914118748971        0.18097063904407       -8.65039489993070
H            8.88764938552782        1.86041175294769       -8.31657407863432
H            5.85694089987110        1.78915845348133       -8.62623842823316
H            7.14365497948260        2.88447871416738       -9.16919918903163
H            6.07659858895267        2.14918358512096      -10.35793351654192
H            7.57186855123817       -2.33388869715240      -10.61165114768099
H            8.72609052969947       -1.01958598986488      -10.88642102474118
H            8.55491743178602       -1.75193807596620       -9.28014874133335
H            5.70649795074570       -1.29559878915673      -11.40017383647828
H            5.10299570430550        0.25969329329442      -10.85119658168711
H            6.53991374962011        0.18653195352958      -11.89098295121135
H            4.53720871416021        0.81667850708604       -6.92380471089669
H            2.86349256986570        0.64828198817380       -6.33808548915926
H            4.00074275300744        2.40371414535191       -5.07390173952237
H            5.30709929508602        1.29771550641015       -4.61140135489553
H            2.12261953477485        4.41670109437712       -2.60456434690528
H            3.44015314181881        4.37314789664917       -3.79009353074778
H            2.15436258118285        3.14094593647437       -3.81085241712160
H            1.36771861836481        0.87391658094527        1.69949655517757
H           -0.21653685259824        1.58980071248315        2.05875857068473
H            1.14346677538353        1.43896104858507       -0.67672641197084
H           -0.02274491877081       -0.65030291229187        0.18912666957064
H           -0.78589443674564        0.05762870587789       -1.26421461142679
H           -2.88011471333503        1.25771948269093       -0.99349022785874
H           -3.46320554514543        1.60755917564558        0.65902453160229
H           -1.62255344911064        3.08586839636262        1.11465430358172
H           -2.23398884825372        3.55017877558416       -0.49400624052448
H            2.10700643100670        4.09600259664887        5.40425051956960
H            0.52081846314819        4.90601902363032        5.47498791280360
H            0.69473512703914        3.32152419076090        7.36538301295757
H            1.09669295409238        2.00464339978470        6.25329707123417
H           -1.52679643741423        3.57768989164707        6.31569646637185
H           -1.31706254419202        1.88420565538607        6.79047158112249
H           -3.78910518185967       -3.65306840625360       -0.33233235137261
H           -2.57963022079648       -1.63012924877353       -1.03307423848749
H           -2.49518437438264       -0.16028330914202        2.95763716148861
