151
 energy: -221.324570971684 gnorm: 0.004318695806 xtb: 6.7.1 (edcfbbe)
C           -6.80438440435234       -4.73492318461272        3.41942694697779
N           -4.85128497774361       -6.73502777227507        3.32365379508177
O           -6.39772444081336       -5.45748773764162        1.10156393538479
C           -5.83038402096304       -4.81523606401958        2.24276329170656
N           -3.28971357939453       -3.89879328642788        0.16325093080139
O           -0.98966228894529       -0.03182473934076        3.75038798979915
C           -7.40489482879833       -4.71419211044552        0.45019795505235
N            1.31503627335581        2.46184774965737        2.68762599492031
O            5.57731857342891       -1.00356945236915       -4.52256075674027
C           -4.61331900890557       -5.63543127496407        2.62406883720431
N            2.66302018026926        2.50546875522698        2.31289771314190
O            4.95341187612608        4.22069085746237       -3.29252169070242
C           -3.83909646067447       -7.49727619768872        3.69796905565958
N            2.62007982067143        4.26872554810810       -0.85384708662648
O            1.63823056310158        6.27765489231469       -0.50374597685161
C           -2.51741044557496       -7.19770727091258        3.40755246785336
N            2.91692212932672        5.16050586140430       -3.42646944888248
O           -0.83054204375326        3.98843007785716       -0.52994302089154
C           -2.25936837138812       -6.05144426098470        2.67774575850955
N            3.71006254787965        0.21178669053974       -4.96679240844779
O            4.20291766867743        2.87908287064163        0.71848020994915
C           -3.31815029944965       -5.24727500621997        2.25839206197505
N            1.56527889628116       -3.30923891991810       -1.31854601809762
O           -1.05942849330350        2.18650143758122        4.05447203890570
C           -3.03056593725111       -4.01748786864616        1.50950617559109
N           -1.56684406310030        1.29580849983715       -0.50564085358301
C           -3.76513505723147       -4.95152275861817       -0.69830191754099
C           -2.61481320652737       -5.76786174119647       -1.28574871321103
C           -2.46455598777297       -2.86194720600396        1.99789687037158
C           -2.00187592621478       -2.62702915742620        3.40119158675551
C           -2.81922295740259       -1.62274042899874        4.25617103200777
C           -2.62189695454675       -1.98780145933166        5.73203015081634
C           -4.30764889696364       -1.70682019701699        3.91197567817566
C           -2.38778512933644       -0.15546893585469        4.05180599849763
C           -0.47032185389584        1.18074936251138        3.72491951588078
C            0.96963649506558        1.15370153331915        3.24003499599247
C            3.03640153446934        2.93452300950531        1.09796998824740
C            1.95373636340971        3.52885012914261        0.19652063292135
C            2.43146033176479        5.57373078357733       -1.10806769406287
C            3.26400427158558        6.04955037315128       -2.31611678424424
C            3.08897598626654        7.54030612179775       -2.63521167680365
C            3.80141498525526        7.89739942006806       -3.93866712770582
C            3.66662734474130        8.37165343505588       -1.49029137618461
C            3.82302247720622        4.24246777141594       -3.78440130746430
C            3.42847683728492        3.06519100429423       -4.69937635994020
C            2.67210129698705        2.06827038636302       -3.80811938624329
C            2.44064075628280        0.74262215161970       -4.53506834191070
C            4.42102088455361       -0.68347992007744       -4.24766665823857
C            3.72207300865037       -1.27929004915643       -3.13638738243810
C            3.23943803206146       -1.81889045928752       -2.17364848912848
C            2.67669802817135       -2.41278068178692       -0.96433553138390
C            0.69407832061811       -2.81073252136844       -2.36108124101905
C            0.78485492237583       -3.76811690048619       -0.18577055996990
C            3.81369419487933       -3.23557695069509       -0.33216328281781
C            2.26752663290876       -1.25648512773972       -0.02329655803416
C            4.36674651405549        1.06008030360856       -5.93698605685191
C            4.67432894063122        2.42695404429913       -5.31858140892097
C            1.56750663032786        5.31568379761086       -3.93294241172083
C            1.07626810965592        2.42751758666636       -0.41311004990522
C           -0.08511379541412        3.01190030268602       -1.23610477594764
C           -1.01300733778968        1.87600529463097       -1.70218643754569
C           -2.38568466960729        2.25888376866981        0.20585941804123
C           -1.52833507936394        3.46564258462715        0.58879409443046
C            3.65253206348750        2.13270848491650        3.31647767703119
C            3.33371756298584        0.76044713762727        3.90199027076081
C            1.89221342074596        0.74668984771676        4.40388616514157
C           -2.37297025984899       -1.97350243272943        0.88897028726526
C           -2.88111920940374       -2.65866338655038       -0.24366921766864
C           -2.89963467476221       -2.05117579863007       -1.49430515326070
C           -2.46766258029685       -0.74438578831956       -1.60069024152099
C           -1.99518180460023       -0.04346300632389       -0.48003459717386
C           -1.90918435912939       -0.67347781452991        0.74740975866233
F            2.59830653952272        3.46840192909832       -5.74974311098784
H           -6.27263450679964       -4.40507233187013        4.30704257444402
H           -7.60806422452799       -4.03424645928143        3.21395454072425
H           -7.21409969020870       -5.72276561360180        3.60528862045212
H           -5.50813296141564       -3.80250872841360        1.95074894383207
H           -8.27673990885021       -4.56425201322780        1.09105346751907
H           -7.02154932161853       -3.73974393819744        0.12636181233578
H           -7.69302014881093       -5.30402338755332       -0.41651479659412
H           -4.11228607933778       -8.37714407930275        4.26323330577373
H           -1.71886392042142       -7.83899497185346        3.74322854683319
H           -1.24801650723217       -5.76962550838013        2.42277652818371
H           -4.42899259405673       -5.60214342459781       -0.12402384008780
H           -4.34623502627107       -4.49532630895254       -1.50349145296860
H           -3.00942222507967       -6.55323730734243       -1.92346670319906
H           -1.96076296875514       -5.13143813821619       -1.87774569181155
H           -2.03211391098925       -6.22647314592708       -0.49024356187898
H           -2.03273516315748       -3.58884790906758        3.91620067357217
H           -0.96414093271237       -2.29003898877442        3.38142109000720
H           -2.96976709830577       -2.99998767838341        5.92120245931260
H           -1.57108670786069       -1.92370720704919        6.00445735097750
H           -3.18781059736028       -1.31193819596866        6.37070950519341
H           -4.87540215008104       -0.99186178713783        4.50221487671665
H           -4.46853484769367       -1.49124015290964        2.85832845667873
H           -4.67925333535997       -2.70550445146489        4.12038727982422
H           -2.59786871817709        0.43225167679968        4.95012384653325
H           -2.94553032232583        0.29374798481889        3.22381864325531
H            1.05805382072336        0.41378780773601        2.43687624818135
H            1.10287965927581        3.18443501845993        3.37823784082865
H            1.33201836844765        4.23370014651692        0.75537781801429
H            3.44282604713233        3.81507520405096       -1.23086197837322
H            4.32085822294417        5.86422815194498       -2.09063298197238
H            2.02158915149924        7.76364680864014       -2.71681956570925
H            3.73749133476969        8.96816579449967       -4.11052984521161
H            4.85152465885942        7.61879702909472       -3.87669024331089
H            3.36687525077782        7.38768577573412       -4.79359122421745
H            3.17114389009371        8.12699424203573       -0.55494508540919
H            4.73248500976226        8.18116465564165       -1.38382923289149
H            3.52117031018510        9.42942739883660       -1.68961026810241
H            3.28920003874756        1.88943843016243       -2.92506888389901
H            1.71948157660053        2.49229097399342       -3.49566557976424
H            1.81851512208432        0.90704695246533       -5.41878103329718
H            1.94970377007913        0.03009050822047       -3.87210198424570
H           -0.03388155319804       -3.58646019890511       -2.59288653661030
H            0.14058509227152       -1.90253885093888       -2.07481597561567
H            1.27590702473410       -2.60831325265669       -3.25834511259613
H            0.18989811199175       -4.61887333165871       -0.51638031395283
H            1.43996691910988       -4.10551594382067        0.61164547896260
H            0.09998365500366       -3.00295734101480        0.20584364401310
H            4.66184932423282       -2.58808624907782       -0.12464930611125
H            3.49334266444106       -3.69949986216150        0.59527664071233
H            4.12780916001204       -4.01310533899384       -1.02278760163391
H            1.35528539208408       -0.78190483120816       -0.37885534994194
H            2.09891864256303       -1.64351136356842        0.97772593782953
H            3.05826062412335       -0.51013388036648        0.01467295310569
H            5.29364025719925        0.57616854227919       -6.24742979358818
H            3.70574163717943        1.17616903868270       -6.79981416163088
H            5.07089178429830        3.09850532538436       -6.08053356707727
H            5.42383744410168        2.32260519277507       -4.53323495967885
H            1.53325253554038        6.10492436394868       -4.68501697520268
H            1.19228229254406        4.40469633273473       -4.38297211467475
H            0.91739550163152        5.59697855254516       -3.10455453013416
H            1.68686120498504        1.79878599048886       -1.06053922982027
H            0.66427925150936        1.81587753893508        0.38608182255133
H            0.30422187633376        3.56203822059335       -2.09652323123860
H           -0.44282479302219        1.12178243401382       -2.24539036475919
H           -1.78629794832745        2.29889306852152       -2.36686306785845
H           -3.22787542790212        2.59508167541532       -0.42508858634201
H           -2.78912946208710        1.80457909595123        1.10995439658426
H           -0.82588420088419        3.18853596153078        1.38403858477012
H           -2.15629654320127        4.28489990624377        0.94254163555090
H            4.62486709722957        2.14270997910399        2.82404256178733
H            3.64252092624551        2.89207248445311        4.10676737702578
H            4.02357482996467        0.55159277599989        4.71835604277054
H            3.46448952803003       -0.00238364532592        3.13312601371282
H            1.77089862956793        1.46014860613570        5.22277153169965
H            1.61531877041776       -0.24370262449239        4.76226346256324
H           -3.25398907298331       -2.57540706477917       -2.36931889985446
H           -2.50198803960873       -0.24824301044382       -2.55944901489642
H           -1.47532311123595       -0.14356706454387        1.57419196447622
