151
 energy: -221.326146006630 gnorm: 0.009776801282 xtb: 6.7.1 (edcfbbe)
C           -8.39294280041496       -4.56159783201676        3.57320725271322
N           -6.95465064419271       -6.02291699063331        5.46036278320935
O           -6.77468744085112       -5.98791066896043        2.40349568641702
C           -6.92585271525859       -4.90280705850802        3.31919716875242
N           -3.69501140259969       -4.71236072916636        2.70799244611729
O           -3.28582054703127        0.78369140311783        4.44752275238406
C           -6.97310149420984       -5.63954805322738        1.05226892598032
N           -0.93325761872842        3.17579729475211        3.24233939652909
O            1.81198460365872        0.92648767561463       -7.92935976031058
C           -6.23376972225026       -5.31549076672455        4.60315595718809
N            0.26239328294308        3.74866702992712        3.68569929715016
O            4.22306529661804        2.33213061087124       -2.58223174504330
C           -6.41219000199679       -6.40276423613959        6.60365521137521
N            2.45348297375520        3.31334608769105        0.79399081433217
O            1.70202543482509        5.14998940560131       -0.26348888798450
C           -5.11508770733765       -6.08071826803163        6.97152009260631
N            3.71499088309972        4.50273527053274       -2.25022317450482
O           -0.02571494836012        1.89708894683759       -0.71288229263615
C           -4.35208388639455       -5.34536908023660        6.08229381207547
N            3.37578772601632        2.34715621164441       -7.11114044650055
O            2.42955393534967        4.20013030295813        3.30557468172667
C           -4.90216816430321       -4.95844284237061        4.86153883825077
N            6.87916380640459       -1.66384184389204       -8.14831023628117
O           -3.53975614176603        2.40095295391951        2.91667930216560
C           -4.09671674267994       -4.18064710701509        3.91370682284700
N           -1.11437308750850       -0.28322651755183        0.65704256577594
C           -3.71840305739319       -6.10898549534122        2.34709557796826
C           -2.39559565722657       -6.78851810620399        2.69657797574150
C           -3.65412334976094       -2.88238068129987        4.03758567056683
C           -3.82627223009477       -1.97631859235525        5.21579111800400
C           -4.92430121936904       -0.89272997178830        5.10598490499109
C           -5.10200141776637       -0.24509797823024        6.48242432881625
C           -6.24618479706341       -1.51577110331831        4.65931347924576
C           -4.54626565609356        0.19279515250334        4.09042327741521
C           -2.89381552059710        1.85240616848315        3.78179732878093
C           -1.54041637200287        2.34050482505268        4.27275844094451
C            1.37455476880056        3.70216817818758        2.93366216228436
C            1.24179910772974        3.07096380358621        1.54414393734455
C            2.58239892286977        4.32043231922784       -0.07319178305449
C            3.92474533492242        4.32525899392668       -0.81598443421255
C            4.89569697946507        5.37001399403832       -0.23522058250427
C            6.22097337189836        5.31795701842845       -0.99541690459403
C            5.13507148900400        5.08605599176882        1.24720323353205
C            3.95376485951367        3.44702333776996       -3.03485881273086
C            3.87880696172364        3.58635198727435       -4.56610183857112
C            2.46295934835284        3.24471186028508       -5.03962693675640
C            2.39659190131305        3.26005613320022       -6.56743814817177
C            2.99060372092654        1.20923892407476       -7.71346078059570
C            4.04475346548312        0.32274299689107       -8.13211486951070
C            4.79299109972775       -0.55108031856954       -8.48879517760225
C            5.68003856491448       -1.59343570785607       -8.99327459547235
C            6.60715815326527       -1.73533946267747       -6.72689180505425
C            7.82209739506299       -2.69793674821599       -8.52751876806699
C            4.85689347495751       -2.89806712663615       -9.05615585800098
C            6.07390843204690       -1.16214857378738      -10.41850461699593
C            4.73686478112164        2.66183744891255       -6.74819531110491
C            4.90174203583315        2.65440399718586       -5.22578498840101
C            3.23125786029037        5.79649133071471       -2.68950779528319
C            0.94460829342609        1.57222491025892        1.53576236556513
C            0.79082601576543        1.05699280899499        0.08918056621780
C            0.21883737991891       -0.36729749461900        0.10140080799359
C           -1.97303957795664        0.50749004695563       -0.20333291527312
C           -1.38600431082992        1.91482339927664       -0.30946132290044
C            0.22005115053725        4.50146624677107        4.93193322350429
C           -0.37602276210122        3.64545872240610        6.04634434548778
C           -1.73030909422703        3.09838341635767        5.60022042726449
C           -2.93780085939096       -2.59419611885761        2.83862744905863
C           -2.97903631310106       -3.76273345619092        2.03818021561551
C           -2.37284812539658       -3.80564168283505        0.78657404194403
C           -1.75372914503280       -2.66484748245311        0.32558722448021
C           -1.70479444405027       -1.50193262058082        1.10704802654357
C           -2.26466318942811       -1.47142027091260        2.36575805375392
F            4.20463046233935        4.88588086001208       -4.97404277907610
H           -8.90067555902776       -5.44152539314688        3.95516960644928
H           -8.45998343074367       -3.76420757943419        4.30736069090704
H           -8.87194463336985       -4.23377961216777        2.65498291254451
H           -6.40378846884310       -4.02667237988986        2.90235824046122
H           -6.30556507218100       -4.81937930391314        0.75919750297266
H           -6.73581784031918       -6.53097635113488        0.47671711623315
H           -8.00764410098245       -5.34541364699019        0.85357309083091
H           -7.05668287509003       -6.98204752085833        7.24976975597130
H           -4.71638059069673       -6.39926374431440        7.92081204186210
H           -3.33261496542985       -5.07456230342263        6.31667298897799
H           -4.54660658960888       -6.59253650666877        2.86849203363971
H           -3.90553650098621       -6.18121476430324        1.27169573132803
H           -2.20948505421325       -6.72743162717225        3.76568161177848
H           -2.43090661196772       -7.83404506407290        2.40687630817825
H           -1.57330605471148       -6.30430575365465        2.17462780339868
H           -4.06638951649567       -2.59028918413371        6.08573189698265
H           -2.87741992548953       -1.47056712264716        5.40403895416704
H           -4.15879165607772        0.16430046131433        6.83344748213116
H           -5.83057424129691        0.55983264308151        6.43182045367943
H           -5.45106923912521       -0.98101895827640        7.20150232793521
H           -7.04501369388307       -0.77933320735072        4.67911785011801
H           -6.16372947660071       -1.90389362073190        3.64669414456949
H           -6.51100276392406       -2.33615862990549        5.32155715336851
H           -5.30211307539763        0.98290643410792        4.06622670551200
H           -4.45838092736752       -0.22686490661811        3.08432552446842
H           -0.88833551559341        1.47648610067086        4.43885041205562
H           -1.59836063626840        3.89450714668576        2.95358425231000
H            0.44485168897861        3.61303614240574        1.02125252175847
H            3.23587418975630        2.70921286586906        0.99265125393577
H            4.37752803286396        3.33413696481552       -0.71143319699434
H            4.45070762686340        6.36383062575345       -0.33434199170984
H            6.62766858531609        4.30796191725026       -0.96150292310603
H            6.09504268615931        5.59461997631972       -2.03702673062500
H            6.93791636780137        5.99567616055286       -0.54202544045280
H            5.82068732153212        5.82219167356587        1.65467666441745
H            4.21196536553361        5.12745167871341        1.82042694293034
H            5.57649908771688        4.10138637440089        1.37576804120781
H            2.22459456141826        2.24726939586487       -4.66350816274620
H            1.73753944399784        3.94611721880310       -4.62854015806511
H            2.61165708683854        4.26743218841628       -6.93624653559162
H            1.40937879267972        2.94607496918383       -6.91076405919651
H            5.92615322841842       -0.93701838322930       -6.43999547720746
H            6.17198029194966       -2.69629980593926       -6.41393737358327
H            7.54689028477771       -1.60001460169160       -6.19375539277748
H            8.74931267182159       -2.51994665279535       -7.98371511791993
H            7.47089441426395       -3.71158841043530       -8.28146097747169
H            8.03710846898357       -2.64413140295369       -9.59096692032656
H            5.43760447882971       -3.68592915319454       -9.52928281299450
H            4.56336129580330       -3.21808556532332       -8.05841990349850
H            3.95504132820811       -2.72906421625906       -9.63849907460644
H            6.80339948888640       -0.35825698393117      -10.36943632898749
H            6.49205148389264       -1.99687464896733      -10.97285440963027
H            5.19243252057855       -0.80763672269227      -10.94620541329268
H            5.40626497687395        1.93434360057572       -7.20381981409442
H            4.97219475579776        3.66096215403040       -7.12924726950691
H            5.90419717446682        2.99365306146760       -4.96706297951185
H            4.75796307478944        1.65438147038387       -4.81935571726866
H            4.05727730968721        6.46430525425120       -2.93731496961373
H            2.58846540065500        5.69779130946325       -3.55765655676720
H            2.64228792836739        6.22282121253749       -1.88112537789756
H            1.75830600759276        1.02753103979264        2.01270632264886
H            0.01860939466265        1.37603672641294        2.07029675157069
H            1.75682343708933        1.06916886697494       -0.42679119282866
H            0.82628831876783       -1.01539126672619        0.73320454594135
H            0.23056126510562       -0.75710964955596       -0.93295883607092
H           -2.06438636783488        0.06279113036903       -1.21300429860817
H           -2.96710386520591        0.57060927351597        0.24582007374676
H           -1.49572711743062        2.41646129536336        0.65972602780212
H           -1.90030454882481        2.49286055123154       -1.07736816154171
H            1.24396907001439        4.80139389037181        5.15781907418403
H           -0.39004434599801        5.39901724144456        4.77624410463501
H           -0.49090680771690        4.25187932587978        6.94362589681838
H            0.29931794364736        2.81930659530787        6.27016107327774
H           -2.43320160977426        3.92008628916638        5.44200823288751
H           -2.14323178348675        2.42768300266868        6.35259875369495
H           -2.39646116488720       -4.69685089577739        0.17832751007010
H           -1.29813490095573       -2.66187762138332       -0.65361536410816
H           -2.16430643265466       -0.57873814616667        2.95693613082256
