151
 energy: -221.322078760003 gnorm: 0.006094706469 xtb: 6.7.1 (edcfbbe)
C           -8.31492798277388       -4.42470407968937        2.83612339242871
N           -7.16986505418878       -5.71946344714071        4.97399171929103
O           -6.39086965726516       -5.61542133028373        1.89108051456357
C           -6.80238370078377       -4.63079030231694        2.83825710786619
N           -3.52117576477521       -4.75993334892408        2.60217045307648
O           -2.99515623704302        0.76579529684519        4.19323189581244
C           -6.32458298653679       -5.15701611529039        0.56061512683855
N           -0.54275963734297        3.08791779467285        3.07716785080367
O            2.45001264688306       -1.22085095311658       -4.57724473927373
C           -6.30355150315069       -5.08797425877724        4.19719731688409
N            0.71010905428229        3.56314031403680        3.47462674265134
O            4.49972222635537        2.84226888689677       -2.80767951748704
C           -6.78881611134885       -6.12131723430773        6.17379108735911
N            2.59442849073660        3.29048498262487        0.38921197316582
O            1.89247011300399        5.41459619910650        0.15466148765964
C           -5.51741502030436       -5.90259707557593        6.68059895954013
N            3.34988771414458        4.72824824407680       -2.38064954777267
O            0.16987841793636        1.75407731694495       -0.94954762160507
C           -4.60128815641284       -5.25140854807011        5.87283976370108
N            2.16831658646345        0.74746475648468       -5.68387855640172
O            2.88515706285372        3.87281502788101        2.98566473558891
C           -4.98178827586669       -4.84026636307671        4.59876360985641
N            5.88301135119261       -1.48445575820129       -8.90719473056909
O           -3.19839541850844        2.58945909314470        2.90633694587162
C           -4.03729495397232       -4.14270037316270        3.71807322682403
N           -0.82070090115809       -0.45200718136566        0.46068556386498
C           -3.49722976257354       -6.18575092136193        2.38819928572884
C           -2.33179930912605       -6.83080403117400        3.13690963384839
C           -3.60668902753615       -2.83731530720728        3.79847255023817
C           -3.81764251385330       -1.91919974398607        4.96335387337551
C           -4.80778446733901       -0.74203088381352        4.82003388281890
C           -4.95587455975883       -0.08255835953491        6.19485543358079
C           -6.16982586367847       -1.23401172945713        4.33308330001993
C           -4.30716772337968        0.30534458777355        3.82058729608179
C           -2.55205845704016        1.87581666810096        3.64241587209455
C           -1.12053889110040        2.18037505436545        4.06476639392409
C            1.77053624140291        3.48155462320641        2.65842023133018
C            1.49555375565560        2.92676380084934        1.25525773588027
C            2.71272691847650        4.53676654954292       -0.08051801457918
C            3.90266926360732        4.74690252241704       -1.02401630520160
C            4.68959015863502        6.00179709959475       -0.62674098047627
C            5.75854495316130        6.33057468331395       -1.66175944384095
C            5.31740232684180        5.73327326368692        0.74197659921015
C            3.59871737757742        3.63374299937777       -3.10935988852067
C            2.70315951369253        3.18482776159198       -4.27680548212845
C            1.86904281061997        2.04228834289579       -3.67096728482987
C            1.17139204489937        1.20845256357676       -4.74300021256943
C            2.83055889009216       -0.40045512285596       -5.41458970020551
C            4.00311600824444       -0.62681882656428       -6.21636067599783
C            5.02616318307922       -0.85917557728227       -6.80617854001309
C            6.26550478814186       -1.07305159089536       -7.54904048228028
C            5.07985242727624       -2.69040454278286       -8.94700174474531
C            6.96922471454696       -1.56652807377972       -9.86140791472939
C            6.99226093726195        0.28183789619352       -7.58227047101667
C            7.11871701546984       -2.10047520461021       -6.77817660003802
C            2.76885477573107        1.83593761943672       -6.42274397410273
C            3.55819172371034        2.73573437786749       -5.46727066050659
C            2.40111947558704        5.76710863566113       -2.72386167597625
C            1.27981937285115        1.41685191967027        1.22772376607855
C            1.03593903199175        0.90832325132810       -0.20724819412267
C            0.47894108689162       -0.52289424841772       -0.16799378871971
C           -1.72523575446232        0.33507062274516       -0.35996108837949
C           -1.16745733462937        1.75099904687564       -0.47388852642237
C            0.79378643443612        4.18969513132659        4.78569635103437
C            0.29739836358083        3.21097797893421        5.84563482135445
C           -1.12014048477543        2.76526426762659        5.49064390241467
C           -2.78365991356319       -2.62820948574511        2.65056835593537
C           -2.74292279702564       -3.85508041741006        1.93767372284532
C           -2.00624277711040       -3.98713604427856        0.76615612763834
C           -1.35209110597924       -2.87806323333470        0.27276859943211
C           -1.40372159515559       -1.65292253366949        0.95056129648187
C           -2.08308314071211       -1.53713516904539        2.14682721195392
F            1.81774797410165        4.15623030252618       -4.74515212403356
H           -8.64873913892300       -4.07701953883167        1.86185752341477
H           -8.80536507076009       -5.36522298203867        3.07171214433685
H           -8.58227551741247       -3.68734727771408        3.58689775273901
H           -6.29607340600748       -3.68418669342475        2.58763048643990
H           -5.88383095354947       -5.96844946741502       -0.01410203205458
H           -7.31509968786664       -4.92718745022420        0.15821164995328
H           -5.68913544395413       -4.26641106632753        0.48425803454331
H           -7.54520250443254       -6.63445728110236        6.75152429623854
H           -5.25465973422078       -6.23429732435460        7.67165145617203
H           -3.59476696058401       -5.06458657804920        6.21789979079945
H           -4.44701457645586       -6.60666813908256        2.72280664392806
H           -3.40218729468197       -6.36802769726757        1.31612776057805
H           -1.39617001959893       -6.34751583733109        2.86278791344240
H           -2.47101694210849       -6.73325896409595        4.21141551731163
H           -2.26913475776474       -7.88603165067267        2.88829118143861
H           -4.17406247250678       -2.52825759460744        5.79701829209643
H           -2.84757531841925       -1.50038070115392        5.23953544909005
H           -5.61074055501436        0.78305493378390        6.13378144004405
H           -5.38065313478541       -0.78493702414996        6.90679303821068
H           -3.98641844288014        0.24186811545187        6.56308496231650
H           -6.54344220796127       -2.01621610724300        4.98849114928969
H           -6.88825338173287       -0.41849699865145        4.31936775723661
H           -6.09008281702419       -1.63660510097597        3.32700461185297
H           -4.98130808085240        1.16649324316999        3.78800695904738
H           -4.24230044802007       -0.12023974377363        2.81590260792085
H           -0.54158870068271        1.25068845061384        4.05691983668456
H           -1.19119156319456        3.86274643847984        2.92271819848959
H            0.61014292655548        3.44688513778222        0.87462172012449
H            3.34760356857746        2.63025078958354        0.28219270151507
H            4.57739022928048        3.88775912928736       -0.97213419758301
H            3.99436170431483        6.84004670370514       -0.52233216221021
H            6.41170769059263        5.47334969638833       -1.80873979089633
H            5.31055753175385        6.58772262533714       -2.61816409794559
H            6.35762744807399        7.17089095260954       -1.32171568803059
H            5.82928322446470        6.62066325051769        1.10301665910755
H            4.55539708963573        5.45542793913846        1.46949267772336
H            6.03774686930055        4.92046557642369        0.67618688191640
H            2.55350437828995        1.39194726188863       -3.12200038975843
H            1.14342701540626        2.45138987908907       -2.96658446014126
H            0.42497408320347        1.79942312898602       -5.27696028112876
H            0.69650765198062        0.34203007767963       -4.28054200205247
H            5.66998265057727       -3.60775994571160       -8.80140011108693
H            4.30838913820748       -2.64410936502220       -8.18067264863711
H            4.59655780631511       -2.74805949384415       -9.92226773489210
H            7.67981077619079       -2.37818548769931       -9.64440453723343
H            6.53267547036398       -1.75474630424280      -10.84148544750804
H            7.50507261344465       -0.62342838030502       -9.90455120947581
H            8.02546120795985        0.15731798263804       -7.89212391949353
H            6.48483100884082        0.95732976385534       -8.26499281202219
H            6.98445354323182        0.71930477527827       -6.58683781480851
H            6.56836775971067       -3.02674258937755       -6.63079505276312
H            8.03493446827384       -2.31076930203752       -7.32421218155633
H            7.37788267146420       -1.69818439083036       -5.80231336888195
H            3.42795244794244        1.43738215306097       -7.19305485425735
H            1.96185711546919        2.40362165547090       -6.89236000235575
H            3.90820648658196        3.62234598804918       -5.99695157662646
H            4.41871716706986        2.19427327190563       -5.07172230073429
H            1.37261812838737        5.44837025744661       -2.54384186757849
H            2.60035794340396        6.62910578572829       -2.09388893847901
H            2.51461534297555        6.05757217769511       -3.76435511849718
H            2.15501368710623        0.91028600406507        1.63399015277018
H            0.41022174856841        1.16778406762314        1.83176908371038
H            1.96898706994833        0.92179655399972       -0.77951027161023
H            1.13317136005469       -1.16235070503960        0.42535816184790
H            0.44008156567150       -0.91247290439305       -1.20126255135103
H           -1.83316936868242       -0.10519908182611       -1.36738485103251
H           -2.70530929414213        0.37177729278417        0.11679654029038
H           -1.23145928658450        2.24109248190478        0.50496754756283
H           -1.73269452166337        2.33142264552523       -1.20460751312796
H            1.83447828626890        4.47193623724647        4.94196101933364
H            0.17223910282928        5.09188177588307        4.77902027906876
H            0.31065966572180        3.69292055202974        6.82204718323904
H            0.96200297544607        2.34658852588880        5.87484180467411
H           -1.79846599444660        3.62106848434557        5.52839333291971
H           -1.47441655230547        2.00945538652110        6.19022797872279
H           -1.95688779899344       -4.92461280425607        0.23306248573644
H           -0.79599805182796       -2.95255588520575       -0.65015510895112
H           -2.05152901063634       -0.59461135736530        2.66261700051091
