151
 energy: -221.319742745495 gnorm: 0.008533689364 xtb: 6.7.1 (edcfbbe)
C           -9.16045545038115       -3.80182956859780        5.12137079309694
N           -7.69467117180859       -4.72606649172484        7.31712256590771
O           -7.79666903655765       -5.72883125328738        4.43856387281192
C           -7.76302512866982       -4.38749040656103        4.92429870230808
N           -4.61156734183938       -4.63644138248261        4.02650096774711
O           -3.52622875198423        0.97052352461605        4.47370780498922
C           -8.13995066254464       -5.85231845220652        3.07592957117174
N           -0.87635916202875        2.58973475789295        2.68104874090747
O            3.65739627315436        1.12592896694894       -9.72336888137048
C           -6.99575415256453       -4.43961624571536        6.22987657099684
N            0.50154595562918        2.73675392117054        2.87491101868115
O            3.03513110983843        1.49960771688982       -4.19658470357773
C           -7.07810362790110       -4.79176921290405        8.48510521446100
N            1.92787752756661        1.80557962614056       -0.34645723766704
O            1.90706814171392        4.02533088401090       -0.71026373046550
C           -5.71761340660594       -4.58257012368218        8.63881052357604
N            3.42139998768793        3.43064729009417       -3.10213564566121
O           -1.33714727591749        1.00084488308031       -1.10305498928229
C           -4.97786986485773       -4.27992723199457        7.50901402143305
N            4.11104608872726        2.86243223199764       -8.33266894216166
O            2.60197047605434        2.37279273638209        2.17671617320186
C           -5.61332767281313       -4.20234747044275        6.27118167450132
N            9.06798016075731        0.35224451323551       -9.74254910323539
O           -3.62920359707959        2.51067101910854        2.84887113839087
C           -4.86005073176533       -3.78909871426989        5.08237708842407
N           -2.24994014228513       -1.01138337886140        0.61088097393807
C           -4.72604826832568       -6.07285942388963        4.06413020842106
C           -3.43419209895386       -6.71598233162610        4.56724711505177
C           -4.37608862019121       -2.52734524888009        4.81758113504604
C           -4.35448784208970       -1.38155065305056        5.78137806182131
C           -5.34938220875913       -0.21923770436707        5.55075084413784
C           -5.38618867721256        0.63063622025369        6.82523346807074
C           -6.74521482405801       -0.76659783285012        5.25651128800515
C           -4.92514331242860        0.67411750276001        4.37658489937578
C           -2.99774244045481        1.83859199112548        3.63142434195316
C           -1.48774828138663        1.88078410219033        3.80218440511638
C            1.39436542343520        2.32369476082181        1.96257982399905
C            0.84938621941160        1.82721489423124        0.61768156948212
C            2.40216601232259        2.92305939605292       -0.91135575375088
C            3.58450531712109        2.68059105922108       -1.85849970287496
C            4.94476893071967        2.98603102595985       -1.19758012267919
C            6.07555808104321        2.68520205373900       -2.18230657358655
C            5.12777884664227        2.14909554228319        0.06760566035772
C            3.20367042021718        2.72243727706394       -4.21657649213898
C            3.33907603294226        3.36928563733036       -5.60963370366407
C            2.40065927365423        2.69285688725176       -6.61156721099812
C            2.72097834409109        3.13160099035193       -8.04371521077963
C            4.45924370372322        1.77492954278334       -9.05061124433482
C            5.84733268691683        1.39885427824933       -8.96029025221377
C            6.93533116007306        0.89747205438813       -8.83801561671980
C            8.24330872095278        0.32341939684244       -8.53050169804557
C           10.31802081455755       -0.37555620567426       -9.65055775072497
C            9.28335418049032        1.68615260217602      -10.26761118171815
C            8.82008869651178        1.11398323901323       -7.33458026485434
C            7.97182862375729       -1.12896411546551       -8.10116467182095
C            5.01773881350099        3.59327037356064       -7.48038585129909
C            4.80850145906196        3.18680026704241       -6.02048423744614
C            3.46630073454748        4.87842420709886       -3.02677467101093
C            0.22688933155913        0.43771932808050        0.72010362749195
C           -0.45819608725380        0.01222376605248       -0.59123710492475
C           -1.22506359290982       -1.30242101656643       -0.36180733835822
C           -3.19741448368418       -0.04167735722940        0.09725314713207
C           -2.46242052833151        1.24557232393241       -0.27310894341377
C            0.93779330913370        3.34743172300928        4.12480591180667
C            0.36936107264013        2.57374898458219        5.31035746197511
C           -1.14845408163776        2.50150362995523        5.17088849232253
C           -3.80566683358652       -2.59308491616596        3.51234569388889
C           -3.95247726675795       -3.92804790163840        3.05970845947975
C           -3.47746741912436       -4.32425786440119        1.81354468920538
C           -2.90759713980602       -3.37309618250270        0.99378687143143
C           -2.78342130775422       -2.03911674875745        1.41417749130556
C           -3.19339861526244       -1.66398098470859        2.67999878368285
F            3.04569381760182        4.73403502158386       -5.63017212420513
H           -9.08066206124085       -2.82756262486927        5.59251877196179
H           -9.66397229229040       -3.68801863315302        4.16535637832584
H           -9.73721437166162       -4.46175792107328        5.76172298654404
H           -7.20093287612788       -3.76991771871888        4.20421233997529
H           -7.47889640325157       -5.23957418720185        2.45167521711596
H           -8.00854341324619       -6.90378340917841        2.83206289528555
H           -9.17850366186261       -5.56358214471314        2.89061081999161
H           -7.71539493350874       -5.01589605445710        9.32811601863506
H           -5.25296478149185       -4.64666414707731        9.60977215392592
H           -3.91362386867942       -4.10425996098353        7.57037246423432
H           -5.56110554198408       -6.33959474414918        4.71507894696995
H           -4.94992018663433       -6.42440370420124        3.05485111430015
H           -3.54233050834008       -7.79627513976265        4.58505334062635
H           -2.60289882802656       -6.45447085547722        3.91625812238081
H           -3.20806540075316       -6.37015771819984        5.57359912638956
H           -4.57310371491681       -1.78563008082666        6.76995964715876
H           -3.34655139168829       -0.96558479926011        5.79830980092420
H           -5.72637224562650        0.03491024383852        7.66711075053429
H           -4.39683247985092        1.02024584109269        7.05048190666039
H           -6.06844848084772        1.46831871764149        6.70503917642237
H           -7.06721546553202       -1.41002028537736        6.07131380926230
H           -7.46049298900437        0.04416922491602        5.14687197096987
H           -6.74058022050086       -1.35091773268239        4.33972628846719
H           -5.48500992499625        1.61326865178849        4.37698327029587
H           -5.10310029720552        0.17292875029438        3.42120508316545
H           -1.11485447377721        0.84910204014225        3.78382142920458
H           -1.32520735920128        3.49992239708457        2.56431852469388
H            0.11000736484245        2.55325774759270        0.26336132715708
H            2.46015159275772        0.95159426814897       -0.40975133510358
H            3.56981698951193        1.62668810585139       -2.15369731242903
H            4.97665199892815        4.04405377541026       -0.92044929767911
H            6.00989120682776        3.31320850326553       -3.06024770905462
H            7.03436947514580        2.85953539917795       -1.70791377498698
H            6.02902374426967        1.64570151563488       -2.50114539411856
H            5.11103337935279        1.08811942773615       -0.17303396360329
H            6.08946119742983        2.37956125564445        0.51740597353605
H            4.35465250159983        2.35814379983131        0.80268231291830
H            2.52071599018963        1.61470863086684       -6.50741412747399
H            1.37054227208093        2.95180316291386       -6.36718403832126
H            2.53660190001248        4.20296202553106       -8.15533437804164
H            2.10696966857684        2.57660655303711       -8.75415435137108
H           10.81258613645216       -0.31034017496743      -10.61907755759133
H           11.00383618157328        0.02670849593818       -8.88946412282245
H           10.12430153803811       -1.42397684538838       -9.44037690571289
H           10.01125362245765        2.26840271954671       -9.68350112148574
H            9.65983725958042        1.59735788588618      -11.28755720220714
H            8.33494189284234        2.22139437406939      -10.29647388943973
H            8.15056132121917        1.01680105839622       -6.48460243434935
H            9.79441843125674        0.71959083937694       -7.05836605453012
H            8.91819552675322        2.16893691912377       -7.57819720769412
H            8.83012158078012       -1.54305571023363       -7.58086428348255
H            7.11568506658279       -1.15499655368519       -7.43248518272651
H            7.74468968375746       -1.73300315229234       -8.97459377883516
H            6.04619050076548        3.39408456715270       -7.78119124014939
H            4.80369136400272        4.66025261791791       -7.59580009416264
H            5.44887626748309        3.78829619340088       -5.37686859255268
H            5.05835452103277        2.13328435572450       -5.88913224885966
H            2.58648593829859        5.31454688438619       -3.49308641085640
H            3.45060792521755        5.16338915003728       -1.98145681749197
H            4.36158921815968        5.27519331557041       -3.50550005677717
H            0.99982203052317       -0.29114251298750        0.96414394264927
H           -0.51912356064596        0.43496489978601        1.51084774590367
H            0.28181443338644       -0.11181442942080       -1.38869297880541
H           -0.55475343892482       -2.06474295905875        0.03654037640496
H           -1.63430444138209       -1.64585455457045       -1.32946123971985
H           -3.72040733351084       -0.43484447517363       -0.79689575162559
H           -3.94151764664367        0.18386104555838        0.86067569527405
H           -2.15967403444761        1.77451247075115        0.63686714774001
H           -3.11320650085415        1.89432983323231       -0.85971180898289
H            2.02634722726124        3.33787871352581        4.11702493782725
H            0.58293023052446        4.38386303902880        4.14440756701071
H            0.64517027924191        3.07545880069809        6.23672951829569
H            0.78727932314706        1.56665774393201        5.32254900571445
H           -1.57907402355345        3.50444371548660        5.23112227297198
H           -1.58399945418095        1.88757620570265        5.95815055119308
H           -3.56748479208413       -5.34759608920331        1.48233200625313
H           -2.55943318523981       -3.65384627203156        0.01071210950120
H           -3.02706483831815       -0.65067602137424        2.99419790617866
