151
 energy: -221.325738048838 gnorm: 0.008879152526 xtb: 6.7.1 (edcfbbe)
C           -8.30025507166803       -3.85138811053617        5.66065626627854
N           -6.69622129748251       -6.16146374102492        5.56909953800626
O           -8.35586596175849       -4.98201295104161        3.47662046988805
C           -7.54278050481901       -4.25006218826252        4.39274717520178
N           -5.06902600721404       -3.93639547797460        1.99804632672166
O           -2.30833738817560        0.25658136702529        4.74235206375908
C           -9.37696204778888       -4.22962986338123        2.85726810643438
N           -0.17992290719775        2.82498748572952        3.50563687074230
O            5.11195767660889       -2.22173921170996       -5.13164621425521
C           -6.38743102483989       -5.16467429770291        4.75048075956537
N            1.19082959854568        3.09307847574903        3.49834756976205
O            4.34502159859555        2.38940633804515       -2.05558166074758
C           -5.75804819199244       -7.00499066185874        5.95495614041105
N            1.95969718396021        3.39338295817628       -0.03028592315776
O            1.47061290113860        5.60544966514353       -0.05578875581634
C           -4.43175649770204       -6.88869332212897        5.56800619328164
N            2.77880963918232        3.90600290169095       -2.62003831864784
O           -0.94034242289774        2.66278140898827       -0.96289146911691
C           -4.10170991468447       -5.85960369397644        4.70620749362045
N            3.76130374677886       -0.43959233950373       -5.52654462684513
O            3.09425924756121        3.28543796163979        2.32253428427932
C           -5.08877599358009       -4.97761954297681        4.26072025013329
N            8.75536893361031       -0.99230484214831       -8.42539037787729
O           -2.78261010986590        2.38921560876095        4.24636021932247
C           -4.68220039049604       -3.92352120260391        3.32064187808170
N           -2.16330630454615        0.43991333677087        0.23721188813452
C           -5.86545368782057       -4.96145976329241        1.36846915986964
C           -5.08473521367636       -6.26116974160399        1.17238433207141
C           -3.79871317882942       -2.89279313543883        3.55099982180332
C           -3.13624438080163       -2.54267772620794        4.84462892000784
C           -3.80620800898668       -1.40849640381564        5.65471193585690
C           -3.10185287433262       -1.29337987131307        7.00903412856943
C           -5.28696300746351       -1.70832156896947        5.87283064169654
C           -3.69403116329472       -0.06929361799136        4.91825292034251
C           -1.99062257622597        1.48916198325334        4.40926755843785
C           -0.48355202505090        1.64139756751056        4.30078489978742
C            1.87749854446744        3.12448949944762        2.35082939829656
C            1.07202360558473        3.03753337453090        1.04817912622898
C            2.14116457524038        4.66136169979887       -0.43478580787081
C            3.22807934074525        4.75237850797393       -1.51454466157254
C            3.57093782053549        6.19352858588582       -1.91310703452756
C            4.40480534858501        6.22223761323003       -3.19090329829881
C            4.34506904300715        6.83292173402082       -0.76035696375979
C            3.36999345953022        2.71112692660249       -2.74177235960344
C            2.92601596998223        1.70556655132560       -3.81400692399816
C            3.12472161159655        0.27655330510893       -3.29328844418930
C            2.88979565479223       -0.73709368823008       -4.41304823296941
C            4.87202897337075       -1.17123342627449       -5.73255065025709
C            5.78526086517869       -0.66865628602934       -6.72261678531001
C            6.64950302500327       -0.29040524247873       -7.47160567345591
C            7.75927249867337        0.08941485679065       -8.34280896608158
C            9.37773508473468       -1.30819409867261       -7.15104648584911
C            8.24524024651391       -2.20536730670071       -9.04009102073835
C            7.21836620884648        0.42026465931024       -9.74338640509834
C            8.40627112410755        1.36066161832696       -7.76572894239013
C            3.52647067383428        0.85891586900771       -6.11006762661052
C            3.77097261151522        1.95444525481057       -5.06953780785317
C            1.54872432184873        4.31545810131029       -3.26819571475410
C            0.46811469641125        1.65249982220001        0.80150445324775
C           -0.17343130829929        1.52875382237012       -0.59449105133492
C           -1.03711499871070        0.25690511748600       -0.65512394313050
C           -2.98167280059055        1.54664773851227       -0.22647488120157
C           -2.12530851580705        2.81053304592443       -0.19616758352988
C            1.85653018943934        3.21801363495202        4.78619909752638
C            1.62169308451874        1.95331331374092        5.60795114683864
C            0.11883921907849        1.70081918137052        5.71813584366800
C           -3.61890907875260       -2.23509435810435        2.29862370208178
C           -4.42357266009757       -2.91955712124335        1.35182268615059
C           -4.46185938479202       -2.51499001183463        0.02052431137999
C           -3.71367494556363       -1.42005227335392       -0.35292698818322
C           -2.90865481791184       -0.73552862783436        0.57151093779928
C           -2.84368806352518       -1.15314023668700        1.88373973307053
F            1.57612138684257        1.82581574109511       -4.14286351547994
H           -9.08055437739563       -3.12914892819687        5.43956191304192
H           -8.73847047087925       -4.74180479555092        6.10030534877729
H           -7.61058734405390       -3.40849132412293        6.37098796859530
H           -7.15892974499792       -3.35056725254790        3.88372458528369
H           -8.95190779168936       -3.39606202814696        2.28465404688826
H           -9.88442556339629       -4.91746412381136        2.18481151713699
H          -10.09269923561660       -3.83930066082101        3.58402455993531
H           -6.08982509026959       -7.79998898287593        6.60969908508467
H           -3.68932116694556       -7.58456401210234        5.92042711342833
H           -3.08710388973596       -5.73437443093443        4.35657192022489
H           -6.75307377329989       -5.16013057012925        1.97715967981484
H           -6.18945804153333       -4.57729361762193        0.39875844136510
H           -5.69310829399860       -6.96570686865637        0.61175350619451
H           -4.16016993425495       -6.07748229461519        0.62679727669565
H           -4.84007489112836       -6.70816785864152        2.13369089458419
H           -3.11955358195407       -3.42969136446251        5.48043262476179
H           -2.10626687319233       -2.24639971397239        4.63981743657275
H           -3.24093012491919       -2.20432200869612        7.58366029817023
H           -2.03681735664662       -1.12848908652790        6.87099328143459
H           -3.51004139631538       -0.46198939202257        7.57834600444269
H           -5.73646478568040       -0.96506959655950        6.52615512216102
H           -5.82137798119657       -1.70503291698881        4.92689521044915
H           -5.39738325495023       -2.68818821848082        6.32900690290899
H           -4.17302113486341        0.73431651329479        5.48652149323567
H           -4.16542000038113       -0.12058629076039        3.93240259811091
H           -0.07702021543538        0.76851031318744        3.77660585707163
H           -0.70460279443980        3.62215011493561        3.86546122402514
H            0.28885719283995        3.80089521676375        1.07996593037751
H            2.69212745976579        2.72855327575160       -0.23322396541092
H            4.13551779672825        4.28049587815139       -1.11915406345712
H            2.64627910417517        6.76247697684808       -2.05158017678247
H            3.84423208558900        5.84060440733294       -4.03967642857861
H            4.70704992006399        7.24250785614062       -3.40776926742365
H            5.29766805880716        5.61373885590589       -3.06500793241502
H            5.27939476299251        6.30352385481739       -0.58925463851660
H            4.56988767566466        7.86979013810374       -0.99092296320472
H            3.75688520753149        6.80140819023809        0.15394821726627
H            4.14196245362764        0.19192574356791       -2.90908215972862
H            2.42894319194940        0.09409998428220       -2.47280568826395
H            1.85275605799673       -0.68238799940261       -4.75378009786410
H            3.10897078988721       -1.74632188218139       -4.06384249946423
H            9.92000896550144       -0.44685420399375       -6.77276802251513
H            8.65346710387546       -1.64052579653094       -6.39078030671745
H           10.09462826819477       -2.11091490513928       -7.31228626245528
H            9.05259872760712       -2.93508092931978       -9.07316005470081
H            7.40351434717101       -2.64680002490122       -8.48324983679831
H            7.93273255075883       -2.00676259364342      -10.06088789194139
H            8.05588623490333        0.54173709745946      -10.42374841942428
H            6.56140903052777       -0.35993801900484      -10.11408875258563
H            6.65289634579561        1.34669312152464       -9.70624293895107
H            7.73466512784693        2.20450211596629       -7.89809194659943
H            8.60933182707343        1.25876544248418       -6.70407806368488
H            9.33454972794775        1.55559919846010       -8.29452428396556
H            4.18760311263209        0.99727127827778       -6.96441519009619
H            2.48651640811426        0.90132899487657       -6.44424671786278
H            3.53087619355931        2.92946258958290       -5.48935013713292
H            4.81610799320280        1.95194103039262       -4.76129129281636
H            1.57797204820200        4.10500067529121       -4.33257245208793
H            0.68786407883163        3.81285852152830       -2.82248220299424
H            1.42866184123494        5.38546552797453       -3.12558942665627
H            1.24806855041303        0.89473339956654        0.88491579433921
H           -0.30082973066785        1.46266441084212        1.54631627084949
H            0.60646934204410        1.48151358781970       -1.36298756988685
H           -0.45622405972976       -0.60588732226289       -0.32734796970827
H           -1.35262461804606        0.09670411857073       -1.70233764808005
H           -3.35873010023058        1.38412033250522       -1.25166387473619
H           -3.82928510773094        1.66615067733044        0.44913649634910
H           -1.88134830714169        3.05080641257264        0.84513918296827
H           -2.65397019740750        3.65183726052955       -0.64702910319532
H            2.91526259782832        3.37891031039091        4.58384743621186
H            1.44997679656221        4.09259353944903        5.30574546123168
H            2.05963150532338        2.07430930731074        6.59702294990290
H            2.10486774521223        1.10932941948739        5.11379686201994
H           -0.35397703717407        2.51268289166210        6.27585486034381
H           -0.07795281228509        0.76229865148289        6.23388306330620
H           -5.06157211771591       -3.03531413229122       -0.71127490089579
H           -3.74189657139483       -1.08399470586306       -1.37967698359001
H           -2.19237344204963       -0.63253906158319        2.56486056173617
