151
 energy: -221.326594340381 gnorm: 0.009497513325 xtb: 6.7.1 (edcfbbe)
C           -8.28416453786562       -4.57495242619471        3.25415599505766
N           -6.68872031440448       -5.99612379459761        5.10735336279832
O           -6.77085840148878       -6.15881924091443        2.14468409889659
C           -6.84363576041891       -4.96971608134847        2.93118640994044
N           -3.61516079144904       -4.42953048011094        2.17706506331434
O           -3.15080985743810        0.84692791134267        4.37269600845800
C           -7.11815150849586       -5.99132844980829        0.78852376613187
N           -0.60349885699239        3.22346362289443        3.65291119551312
O            1.24747288256051       -0.29688024364184       -6.73332129829833
C           -6.05993705195200       -5.26919085358169        4.19479929009308
N            0.64646654032792        3.58118448952472        4.16828065775333
O            4.31933441273529        2.28544828369910       -1.63547431066303
C           -6.06416697438528       -6.31904978295480        6.22573735522794
N            2.71827612637715        3.53253779450537        1.17450946150039
O            1.93771156666232        5.48706502333525        0.37311136428378
C           -4.76537067975164       -5.92684283904250        6.50882276593327
N            3.65150025246808        4.42989609001290       -1.83180059341313
O            0.33476968088017        2.36375081416517       -0.54457758288347
C           -4.10229707410990       -5.16545448077334        5.56474174603130
N            2.80383451564503        1.16950152167521       -5.96847167284070
O            2.84843063314196        3.87611082184420        3.82549324703645
C           -4.74256881495902       -4.82529483219510        4.37187014490720
N            6.49079616941737       -1.73282842994731       -8.39786009784119
O           -3.26884436930731        2.78526639164624        3.24488953833483
C           -4.01674991021801       -3.98125686629186        3.41721367903327
N           -0.90329921284926        0.09108045817927        0.51448419977018
C           -3.64758036912228       -5.79769026426598        1.72267831327162
C           -2.35590862818625       -6.53151171480484        2.08085189482095
C           -3.58628574555846       -2.68974053715436        3.62347743822235
C           -3.83045899539586       -1.85811876761852        4.84158015500434
C           -4.92995289225630       -0.77470707226118        4.70498301813104
C           -5.30981170134221       -0.28742527358246        6.10694080635164
C           -6.16527057457766       -1.35384846250598        4.01562205123208
C           -4.43444052662158        0.42317347469748        3.88306218746979
C           -2.67119282056873        2.00142914433480        3.95158214421141
C           -1.26899993735700        2.23337209497211        4.48999734451500
C            1.74390599720122        3.56287579734504        3.39584284362392
C            1.52914920142180        3.20184977970266        1.92330582841651
C            2.81012918914949        4.62654605013793        0.41806271639413
C            4.06919203632662        4.68643956805054       -0.45198683698029
C            4.82167687522424        6.01375675516472       -0.28011908233705
C            6.09398151039483        6.01625658402989       -1.12120171327230
C            5.15851437419607        6.19673527543193        1.19937358173689
C            3.86583046184563        3.20345778131036       -2.32117759783037
C            3.54166299783255        2.90630717306026       -3.79254813071263
C            2.13124916162911        2.31812908967382       -3.91051223422429
C            1.81591242208104        2.04665087314343       -5.37960645024007
C            2.42066404808909        0.08310054070325       -6.66210771009607
C            3.46454197524608       -0.62578152201312       -7.35815386567030
C            4.20106813736257       -1.26440322996740       -8.06516584283133
C            5.13588802127323       -2.04157023457417       -8.87624275012969
C            7.53422237913897       -2.63078257525253       -8.84905532393265
C            6.88104231126762       -0.35265629541673       -8.61284426839165
C            4.78938268939119       -3.51904183361865       -8.63867791044114
C            4.89360200297933       -1.69643852043109      -10.36207658115621
C            4.17298169535700        1.61941122247594       -5.85153784369401
C            4.53573095971906        1.90565725955054       -4.39105359580253
C            2.88645535856605        5.48022812861058       -2.47361088279999
C            1.17669174752483        1.73052421742671        1.69361835722058
C            1.07710029368482        1.40083611739788        0.19171560641019
C            0.45062987803401        0.00990486846361        0.01165623877706
C           -1.68189660692999        1.00696433441683       -0.29752726775045
C           -1.04284586342370        2.39119127988864       -0.20224047209433
C            0.68501956797512        4.04078302514942        5.54841649999618
C            0.06029971393515        2.98899122933541        6.46225689023257
C           -1.34863630349321        2.66472441800762        5.96715193536038
C           -2.86345287797156       -2.32001186547735        2.45250418376383
C           -2.90123813419791       -3.43292433732635        1.57370597442064
C           -2.28678307783629       -3.38592564535713        0.32558509152609
C           -1.63646035030062       -2.22648552969289       -0.04171394178581
C           -1.56349625351877       -1.13076818980442        0.83152456676305
C           -2.15763168683151       -1.18183552696431        2.07618044158235
F            3.63898940012803        4.06990179943573       -4.56406930025430
H           -8.29226570577674       -3.66223162478257        3.84242421495037
H           -8.84200781084223       -4.40311927230474        2.33559971933874
H           -8.75503117653987       -5.37218465246508        3.82146215853784
H           -6.34807520879741       -4.15250706232565        2.38208495664675
H           -8.16282909181812       -5.69362900550544        0.66706959527602
H           -6.47067974862510       -5.24373840344015        0.31182602728209
H           -6.96471529926330       -6.96273050212976        0.32119714793911
H           -6.63910928155329       -6.91807243916664        6.91988644443462
H           -4.28898049175038       -6.20534402667580        7.43410631128187
H           -3.08615882858975       -4.83625659473392        5.72897396345980
H           -4.50251084002018       -6.30233720758233        2.17748112903286
H           -3.78425624500737       -5.79457020017686        0.63853034679746
H           -2.22178883715383       -6.55500079762592        3.15972757037431
H           -2.40029997656612       -7.55083637676505        1.71207029028624
H           -1.49934330046578       -6.03040323107207        1.63457379421658
H           -4.13157445190395       -2.52188850724758        5.65387730791234
H           -2.90249284060408       -1.36318525298813        5.12886681047374
H           -5.72999977735330       -1.10278642818753        6.69105458913085
H           -4.43533894726377        0.09849620347065        6.62490771627968
H           -6.05381414723260        0.50413881318670        6.04378273172947
H           -6.51093276083174       -2.22773202729553        4.56139115249155
H           -6.96693072002486       -0.62177477659393        3.98391177584728
H           -5.93134957127296       -1.65540530679454        2.99720796998388
H           -5.13168496652791        1.26266147851427        3.95878217330421
H           -4.32694822533920        0.15710834219817        2.82748990126045
H           -0.70274997990534        1.29764313558046        4.42103760118219
H           -1.20546415289975        4.04284895259296        3.55354002434684
H            0.73389403181633        3.84835992724208        1.53620042470061
H            3.49590020355731        2.89250858369202        1.23690371218173
H            4.73721856083489        3.86322060680006       -0.18028950897356
H            4.16976783332477        6.83432389140591       -0.58843550717362
H            6.77659464009651        5.24754190926733       -0.76624004749748
H            5.87490427836107        5.81860947526637       -2.16869760559006
H            6.58954791730397        6.98011554707816       -1.04560553544799
H            5.78504680072218        5.38100022631303        1.55373077830037
H            5.69019576238451        7.13232722416080        1.34774398605841
H            4.25405561327009        6.21343585486608        1.80281105663379
H            2.12323314086386        1.38928797224772       -3.34227641857907
H            1.38142912581082        2.98028740852025       -3.48211474808277
H            1.81227813693216        2.99452427939734       -5.92857565732834
H            0.83848462433509        1.56975453690121       -5.48329854803101
H            7.67633958026386       -2.62364130393542       -9.94045530101408
H            8.46685145623621       -2.31201557413028       -8.38691702439263
H            7.32617322864375       -3.64548121257368       -8.52203081215619
H            6.04854188998392        0.30709781864545       -8.37534546124954
H            7.70936752721625       -0.12271506232360       -7.94224363097614
H            7.20807882849846       -0.15500398552793       -9.64436676236260
H            5.07597711611476       -3.81469589619694       -7.63410679938966
H            3.71666719643359       -3.65551588920220       -8.74768404019865
H            5.29308789993795       -4.15044699576971       -9.36447151807308
H            5.61739193910395       -2.22103632921429      -10.98125897644390
H            3.89392134513605       -2.00934640005424      -10.65328816401360
H            4.98331538644780       -0.62771706147905      -10.53653985131341
H            4.83407815561579        0.85010672827142       -6.25063016338529
H            4.29753079468666        2.53918192024438       -6.43511989679612
H            5.54407820741157        2.31972185765337       -4.34891169012100
H            4.50909681155127        0.99736457984449       -3.79092138647239
H            3.54031068966771        6.16962319016545       -3.00832189695311
H            2.16151828652157        5.06928550765674       -3.16765016643292
H            2.33909574299373        6.01635051313156       -1.69988250123728
H            1.94438830554819        1.09429117712146        2.13577244348781
H            0.21916812149045        1.51342316084266        2.16143930600979
H            2.07023172884845        1.42764208457311       -0.27108272293983
H            1.00460251815199       -0.73151520246099        0.58793133008973
H            0.49390105008401       -0.26158665058358       -1.05840309864102
H           -1.71600951730017        0.68472005589149       -1.35527651038142
H           -2.70080556396096        1.05092436215328        0.08975041586866
H           -1.18104871206384        2.77993052213490        0.81332882034979
H           -1.50092819379167        3.07940678991720       -0.91402735446388
H            1.73004302922601        4.22552402160878        5.79750786897302
H            0.12679954616035        4.98160987812665        5.61786338232223
H            0.02671707218618        3.37074259091199        7.48097795486975
H            0.67403725033462        2.08742759707840        6.44774727736984
H           -1.98771661005564        3.54651134029779        6.05317729196007
H           -1.78821982891824        1.85974170873408        6.55388957274755
H           -2.31566642835875       -4.22679198037089       -0.35091443101149
H           -1.17090196794085       -2.16912992667973       -1.01419380244444
H           -2.04376189338111       -0.34294351259252        2.74146819279471
