151
 energy: -221.325311018545 gnorm: 0.003261639054 xtb: 6.7.1 (edcfbbe)
C           -9.08657079832788       -2.64238771764583        4.69852911743084
N           -7.98010866047880       -4.90960080333832        5.98685743476586
O           -8.59896515606333       -4.48433920207247        3.14264926319363
C           -8.02988012442570       -3.51667976123408        4.02401160758502
N           -5.08868335839972       -4.07725738696307        2.68195743609379
O           -2.61217206752849        0.61869742306236        4.92137265275549
C           -9.11742689319749       -3.95955516604670        1.94123783843834
N           -0.07859537946313        2.65439836879405        3.43918329672720
O            6.63007991888546       -2.57561109864564       -6.05658934713187
C           -7.25122949855020       -4.30772214089119        5.05888194093319
N            1.28812414931373        2.87581608448349        3.64610571101729
O            4.80862305709976        1.05065150475597       -2.11695941125354
C           -7.38016334227857       -5.62805919917521        6.91895867164580
N            2.59499514623625        2.51098659055398        0.26399792158192
O            1.66802723488575        4.38823639277602       -0.57609106309014
C           -6.00448210502359       -5.78123768176266        6.98940371814775
N            3.02988609930832        2.30938485842782       -2.66934422864518
O           -0.24135822855597        1.69701910382848       -0.74048676192941
C           -5.23434070116595       -5.15621715844454        6.02564852170291
N            4.68095646253698       -1.41206109998550       -5.98114226366395
O            3.38698387224490        2.82294731771258        2.83689288682056
C           -5.85198804151418       -4.40630109205968        5.02559880430687
N            7.46205638635851        2.38267463332626       -8.42374735291692
O           -2.81287132410163        2.47138201038372        3.67602968241350
C           -5.02650042543817       -3.73543891913195        4.01611968682245
N           -1.59801107905476       -0.28835080030015        0.69312768425975
C           -5.71184881381437       -5.26167346352766        2.14545751610297
C           -4.73551863108648       -6.43632635043201        2.12394828839193
C           -4.12631418828768       -2.71090497024800        4.20713887686016
C           -3.72850231198909       -2.06619989198307        5.49647336868602
C           -4.42635657859209       -0.72828361894247        5.83563132674610
C           -4.01949580309968       -0.31609590553928        7.25281200253451
C           -5.94389814684480       -0.88967480293568        5.75995254513451
C           -4.02660126679458        0.38105260602586        4.85503900038660
C           -2.13704727928305        1.67533385016156        4.28912051604261
C           -0.63405412701163        1.79581628345310        4.48050270437255
C            2.18184533148894        2.67698395378003        2.66250329336779
C            1.59910820923459        2.32538578956547        1.29427321004457
C            2.50887928754186        3.50089972589495       -0.63135290618945
C            3.51078667907437        3.37185661792120       -1.78433223025249
C            3.72203036114089        4.69768526797483       -2.53276319985401
C            4.56989810478507        4.48504357913768       -3.78459976346196
C            4.40009500124455        5.69310632900834       -1.59373456790925
C            3.79155252583052        1.21635795109842       -2.79425900650246
C            3.48840476616943        0.18002584773671       -3.89837323463109
C            4.22664233358013       -1.12931858562631       -3.60413557611845
C            4.19632709473956       -2.08650995230867       -4.79863784937116
C            5.92540707323002       -1.64064019592831       -6.44205047312338
C            6.40028412006231       -0.70175576512818       -7.42615194289294
C            6.93856178820576        0.09108677954929       -8.15543875782309
C            7.53614861069331        1.06211327667221       -9.06722698556864
C            8.00228464009818        3.47186638885528       -9.21178202906103
C            7.99401603190073        2.43047006985771       -7.07723328329483
C            8.96450073102556        0.58339290351958       -9.39582112654197
C            6.67486320848058        1.06101944283246      -10.34357980016239
C            3.88010056456519       -0.27081303585371       -6.34990978126974
C            3.92581564422933        0.78107892748757       -5.24005689382011
C            1.74350306509020        2.53872148526311       -3.29932195658511
C            1.02486835334087        0.90737597084623        1.22608792550768
C            0.46131075917326        0.60210938974501       -0.17536570732423
C           -0.45049323806939       -0.63186903105612       -0.11997636036242
C           -2.35164764788963        0.78946472482035        0.07348998463187
C           -1.44083742227437        2.00695075766328       -0.04946306101219
C            1.68219956041965        3.41203993268688        4.94202353756625
C            1.14908301165957        2.52469885426545        6.06256274639213
C           -0.35789793908306        2.34092888993264        5.89479943661587
C           -3.60325443635079       -2.39992054924576        2.91804670535105
C           -4.21985624095489       -3.27930220014616        1.99392132260586
C           -3.92669251315879       -3.21979225604125        0.63522168905184
C           -3.04810930293730       -2.25113876059909        0.20238997996544
C           -2.43826776248780       -1.36798237192793        1.10531266947300
C           -2.68514535346745       -1.46012388216398        2.45753981126388
F            2.12232899522310       -0.12083767754134       -3.96106119807480
H           -9.78468626070046       -3.27953229190172        5.23174654660223
H           -8.60540547327218       -1.97089539634082        5.40228070568992
H           -9.62151514148915       -2.05038758094301        3.96115648180424
H           -7.33577987568789       -2.88356056636267        3.44739094227132
H           -9.40668558184342       -4.82125492520061        1.34372161771286
H           -9.99419144383995       -3.33025776212061        2.11475072725517
H           -8.35568764760371       -3.37744556346116        1.40864068428298
H           -8.03978129672421       -6.09376989808499        7.63849237549413
H           -5.55359236811123       -6.37284404906985        7.76931848018926
H           -4.15845304983985       -5.25325516985814        6.02705727683632
H           -6.58425211667525       -5.51079723894718        2.75256056856555
H           -6.05301250793572       -5.03961714338182        1.13115318826124
H           -3.84854193769835       -6.18077401699591        1.54898255167887
H           -4.43168147113244       -6.69119552427975        3.13633996056075
H           -5.21022425931510       -7.30283135730425        1.67375740991664
H           -3.94384992743333       -2.75698297310515        6.31324399418656
H           -2.65220303001872       -1.88642387807115        5.47300208207291
H           -4.35700590595091       -1.05755775412251        7.97170819165481
H           -2.93890668974661       -0.22789324549031        7.32518289215723
H           -4.46408880556856        0.64160060608944        7.51234775191643
H           -6.24744419266861       -1.13718360635941        4.74711871359541
H           -6.26529000668987       -1.68879431809871        6.42192237826694
H           -6.44161714579905        0.02967503081905        6.05542763609566
H           -4.54450608953420        1.31465028671943        5.09674172068541
H           -4.28336773200869        0.10519497791286        3.82797421660898
H           -0.18095537034497        0.80390292265677        4.38092353320200
H           -0.59106082849469        3.53796389408018        3.42462878231404
H            0.81546219493024        3.05822450853486        1.07574274968194
H            3.35036642648336        1.84291285841697        0.21430793700827
H            4.47261196046511        3.03092430918617       -1.38672531782710
H            2.74575195870347        5.10320983625058       -2.81244772237897
H            5.49706387386000        3.97533999215935       -3.52949273020297
H            4.04392455655569        3.89002493211593       -4.52450886333854
H            4.81443802108187        5.44490139838424       -4.23001548862157
H            3.78903102082628        5.85592975516917       -0.70956266870220
H            5.37336991456031        5.32138670141668       -1.28090317300417
H            4.53654723434746        6.64595892068768       -2.09724999201759
H            5.25679513204646       -0.88270889950945       -3.34656409007596
H            3.76535491120077       -1.60592690444836       -2.73838540778710
H            3.17529497078886       -2.43111604685505       -4.98148011624688
H            4.84279143084180       -2.94353535878388       -4.60426155252660
H            7.71815224927984        4.40533845617787       -8.72688762131534
H            9.09991008803505        3.44874104577644       -9.28550977271043
H            7.57669496117531        3.46287892441245      -10.21007300418264
H            7.64784021497649        3.35130874793774       -6.60702358862151
H            7.62364574349559        1.58520531430370       -6.50009039823236
H            9.09463799867554        2.42196932536073       -7.04240148858960
H            8.92550990719413       -0.42261016822576       -9.80484078725202
H            9.42368974382295        1.24210446903037      -10.12822933790412
H            9.57822282044058        0.56314481712275       -8.49777774218042
H            6.42643833719721        0.03913875865764      -10.61416165197783
H            5.75818263328524        1.61258930754377      -10.16305253294717
H            7.21221026393491        1.51209773597158      -11.17199170572702
H            4.25106626012472        0.15294315390452       -7.28278068097276
H            2.84905855596571       -0.61050012549799       -6.48677139080732
H            3.27116225123296        1.60857545008923       -5.50517161317143
H            4.94422264333722        1.15528655320500       -5.12586808044184
H            1.08870733420688        1.67978731118880       -3.18036067685637
H            1.26651179789321        3.37729077019358       -2.79977745853031
H            1.84914172991448        2.77192570313452       -4.35827928719638
H            1.80362803070696        0.18027552518103        1.45580699677232
H            0.21791230969976        0.81285132996307        1.94916823128488
H            1.28218838822370        0.42358658920888       -0.87896070562157
H            0.07535052147555       -1.46825959399819        0.34264571728223
H           -0.72623382785669       -0.90985582598042       -1.15329899970541
H           -2.72840604800769        0.50299596038600       -0.92468690433920
H           -3.19936405246547        1.03889914909166        0.71442791274477
H           -1.22682065353816        2.38840122257092        0.95518732491967
H           -1.91548817711335        2.79244134971433       -0.63862006394599
H            2.76951879932082        3.46362461299215        4.94971312818728
H            1.27321251153301        4.42396726762276        5.03406209109195
H            1.36808340429952        2.98821782647332        7.02370671960915
H            1.64468289120907        1.55417191993244        6.02446591348161
H           -0.86804682499150        3.30023405180012        6.01215326441610
H           -0.74810721415505        1.64656627800695        6.63723884192427
H           -4.38439824438181       -3.89612582994229       -0.07039109825522
H           -2.82657362511900       -2.16383686577549       -0.85133855598802
H           -2.16955316560467       -0.79470736809303        3.12791981813302
