151
 energy: -221.323958363641 gnorm: 0.003211947492 xtb: 6.7.1 (edcfbbe)
C           -9.11442247435909       -4.42320023185566        4.47371694185409
N           -7.60145687028314       -5.43778634011966        6.62901525017053
O           -7.64843028197146       -6.30076048299686        3.83324495539466
C           -7.69165595380594       -4.94541479198068        4.27748550093314
N           -4.36871683171729       -4.61906554351595        3.59149913353774
O           -3.77502464053470        1.07972973740045        4.38203802919766
C           -8.22188389991578       -6.53892142248799        2.56587834520451
N           -0.96231560868639        2.94746719541519        3.18686513650471
O            3.23852830427983        0.62108616144576       -8.87866082632792
C           -6.94427678918639       -4.92620904452310        5.59679668918553
N            0.29702586545532        3.32773481658343        3.66416569996994
O            4.53529744362352        1.40824895971065       -2.51867584257945
C           -7.02943102156607       -5.45874645346018        7.81840120045134
N            2.45122197240879        2.51666453443439        0.83170444900307
O            1.86438702685916        4.41236243007314       -0.21579255031854
C           -5.76361146845806       -4.94643915305070        8.05920232235845
N            3.84038288581238        3.53494767420956       -2.22636872255799
O           -0.26675359482884        1.29968800280804       -0.54080876611685
C           -5.07034078779478       -4.41388905263140        6.98899069486851
N            4.37137721836961        1.67186503548009       -7.21421958387115
O            2.52293908531731        3.41653294032288        3.36237243727455
C           -5.64952242569463       -4.40791585906330        5.71863079644626
N            7.86737014873142        0.19268489550806      -11.36089710504754
O           -3.58497738236713        2.51722348722520        2.67515893959012
C           -4.86702352733510       -3.84159287626101        4.61403313835481
N           -1.44059062617846       -0.73044076674433        0.98970651004615
C           -4.45819196415808       -6.05609609978552        3.50801093006213
C           -3.37556958871732       -6.73228208867265        4.34797080578879
C           -4.42475105761749       -2.54317098389250        4.49105293576213
C           -4.71704590241836       -1.40687655830729        5.41863899070965
C           -5.70328831041265       -0.32712442195118        4.90912541766475
C           -6.17135950916536        0.50157437047482        6.10889981089946
C           -6.90637090621815       -0.98137581983977        4.23017537386470
C           -5.04625244924257        0.61724050158025        3.89265217378887
C           -3.12782621283514        1.97264486513075        3.65571704514609
C           -1.73294058005181        2.23809049671496        4.20430913965452
C            1.41416689077314        3.08062984002402        2.96073091981350
C            1.22671104630847        2.41819858898040        1.59315911716381
C            2.66982972423223        3.50425805804221       -0.04070431392182
C            4.00608904787209        3.40026323968452       -0.78117250040355
C            5.00671407926997        4.43462922376793       -0.22274957879551
C            6.32976720289661        4.34775305143481       -0.98062927362654
C            5.23876239546189        4.17383033069804        1.26447974843913
C            4.23247987687078        2.50758647016366       -2.98887403110337
C            4.32900170734749        2.67394357568813       -4.51528842024863
C            3.04550252077392        2.21286932278879       -5.21107858953852
C            3.19293523742667        2.35506235999756       -6.72563494873345
C            4.29970303308793        0.89554854618360       -8.31130126469636
C            5.55787437550655        0.41182779746129       -8.81781767141197
C            6.55870459244964       -0.01066850678438       -9.33940684781892
C            7.78543411301693       -0.42002172968151      -10.02328864995468
C            6.86874370148106       -0.29384853616223      -12.29609332331131
C            7.86314496044359        1.64493669159158      -11.33988194981372
C            9.00088853484596        0.00836346574810       -9.18337290816399
C            7.78903174864955       -1.95226550877372      -10.13365661521972
C            5.60988017392890        2.04682725835978       -6.57025139931831
C            5.50790504101779        1.86015993653493       -5.05702225738769
C            3.31595998771040        4.79441156114344       -2.71513025650688
C            0.79712716100573        0.95402579560707        1.65676131697258
C            0.51950601102647        0.41148564298690        0.24102878919673
C           -0.17610104876878       -0.95493404968232        0.32943125417060
C           -2.28775641252602        0.12708445081939        0.17876761946685
C           -1.58435807496262        1.46488210396904       -0.03853599982329
C            0.32444071482943        4.10337742990299        4.89663234920182
C           -0.40223214039322        3.34095587047529        6.00051371626349
C           -1.81898448981199        3.00858286846996        5.53405981436690
C           -3.59254509268809       -2.51859534101514        3.33471862748997
C           -3.56630923132622       -3.83542678433460        2.80969854883148
C           -2.79321971399077       -4.14683969194355        1.69607381535380
C           -2.08091202263595       -3.13632351788588        1.08407792153821
C           -2.11314584936497       -1.82625769852304        1.58197329435093
C           -2.83575753164613       -1.52913356571756        2.72034416614912
F            4.58420971181930        4.00810526573282       -4.85299941410718
H           -9.07361903075439       -3.42559714386308        4.90031254941027
H           -9.64399435379686       -4.37481531823331        3.52680135074843
H           -9.64146825517493       -5.08090126407645        5.15831757314704
H           -7.16229961578232       -4.31438688505215        3.54343149712942
H           -7.94072903056910       -7.55692923228085        2.30348219662190
H           -9.31161574878667       -6.46217208457620        2.59394235672742
H           -7.82494639002573       -5.84232284271611        1.81871911981631
H           -7.62065355118835       -5.90004245186933        8.60904333697500
H           -5.33638643615928       -4.96907579056616        9.04836846302779
H           -4.07525436454567       -4.01295997803655        7.11654793320387
H           -5.44456439437995       -6.37574923245977        3.85027298346620
H           -4.34869465637889       -6.33859975750242        2.45889971385799
H           -3.41582921539989       -7.80754313892921        4.20407206391994
H           -2.39132635476446       -6.37232088605853        4.05735815551950
H           -3.52873040052120       -6.51678805336843        5.40298126085436
H           -5.14132422835197       -1.82189945135944        6.33462171687658
H           -3.77882852916179       -0.91019849544533        5.67258516826604
H           -5.32065267947768        0.96840223744115        6.59827836104373
H           -6.85696396858851        1.28153840198835        5.78692326813445
H           -6.68514416748702       -0.12907538658336        6.82863970529379
H           -6.58928963963024       -1.56541358154113        3.36967320756406
H           -7.40720899083685       -1.64536155301740        4.92954320240116
H           -7.61427785555510       -0.22785216177147        3.89453151596207
H           -5.68412272486345        1.48583450072845        3.70162768766998
H           -4.87865785555265        0.10546338803141        2.94032975392514
H           -1.24343210451174        1.27372946503928        4.38291863080378
H           -1.48961048386170        3.76424834838024        2.87199025064168
H            0.48045928687700        3.00507614471991        1.04631085596068
H            3.17471983350337        1.84318706722471        1.03225175245083
H            4.41641623821247        2.39705789052085       -0.62907126712014
H            4.57665883939450        5.43296384275436       -0.34406331926029
H            7.05030619692342        5.03504886119409       -0.54696598348708
H            6.73104730125780        3.33820917885041       -0.91726474534470
H            6.20560315600785        4.59921892867447       -2.03072577507387
H            5.95063794843360        4.89475684778993        1.65684154524570
H            4.31837952555445        4.25998521868400        1.83729152987788
H            5.64589708018680        3.17683052030340        1.41498501482218
H            2.87579514332408        1.17250814249128       -4.93356629556039
H            2.19106656811214        2.80254271884717       -4.87858933182662
H            3.27168019466197        3.41965269058229       -6.97889153076161
H            2.32648992295572        1.93212978624396       -7.23824746487240
H            7.02014103453774       -1.35185783471907      -12.49062717970103
H            5.83681425487074       -0.13455123445026      -11.94521985442045
H            6.99532923263571        0.24037112902392      -13.23694020421107
H            6.91604650005538        2.06549370276493      -10.96864178283479
H            8.67915080938028        2.01526617436315      -10.72732222223965
H            8.02031176770207        1.99838555210618      -12.35785981359254
H            9.06954895343529       -0.61372982723286       -8.29553769764037
H            9.90104978799308       -0.11696509768620       -9.77731963133825
H            8.92303737793951        1.04282178578389       -8.86176917096311
H            7.92156928983867       -2.38535198016537       -9.14585591665810
H            6.85106238303387       -2.32406918605907      -10.53685426724714
H            8.60996204699011       -2.26403627101429      -10.77266073160508
H            6.41775447919065        1.43305608752510       -6.96790536370556
H            5.82168257326256        3.10076872491182       -6.78786589049237
H            6.43046838427725        2.19846969042466       -4.58572664691102
H            5.35021721977940        0.81469898605465       -4.79799646416365
H            2.72293281933303        4.64289498646755       -3.61204553614525
H            2.66501079855868        5.20356447906709       -1.94555765134535
H            4.11583908389833        5.50338199855117       -2.93271249594196
H            1.58468898263644        0.35658022832057        2.11522417245825
H           -0.11004627685914        0.85964021744566        2.24804014879146
H            1.45296858977892        0.32509757998723       -0.32477762605900
H            0.42385110088727       -1.64728991823671        0.91960016489454
H           -0.29360711690674       -1.35357294345323       -0.69306111391030
H           -2.50324717632293       -0.34281160002068       -0.79760974790265
H           -3.23014134780527        0.30574472196843        0.69796122892159
H           -1.57197929096431        2.02198965626306        0.90511109628567
H           -2.10760193625219        2.05519688915065       -0.79261834957466
H            1.37057191477655        4.28156179355312        5.14230097724332
H           -0.17048778761960        5.06388870726120        4.71348800688803
H           -0.43396785803820        3.95096279703346        6.90202128485782
H            0.13983854494247        2.42110700296506        6.22218806859726
H           -2.38636747232671        3.92970931139248        5.38177147988763
H           -2.33718048661424        2.39906061650812        6.27251235424866
H           -2.74643193633664       -5.15247166117520        1.30644653692537
H           -1.48676115593495       -3.35689629912061        0.21012472503977
H           -2.77525156436987       -0.53225038588480        3.11559090377902
