151
 energy: -221.316966684334 gnorm: 0.008425430802 xtb: 6.7.1 (edcfbbe)
C           -7.44453102075832       -4.52221855101345        2.90087578612993
N           -5.62901660652825       -6.39236583570891        4.51367244246380
O           -6.94250586818667       -6.67373182191187        2.11072869868606
C           -6.31508333094839       -5.43848613313273        2.42675438963665
N           -3.30071104482107       -4.32588895319131        1.24114784875158
O           -2.70091628842926        0.92944368501579        3.62494788120414
C           -6.11633862624097       -7.64206692043408        1.51355015195971
N           -0.05306953180001        3.05485103589754        2.86446301676617
O           -0.37302723285383        1.14602573771889       -4.76436618423343
C           -5.27846111558504       -5.56947602363234        3.53218673426068
N            1.26431736161246        3.18734296530211        3.32206499780786
O            3.96396515134292        2.34560108233207       -2.49623432446395
C           -4.82819043766281       -6.56469554356684        5.54775222098293
N            3.23312707036141        3.09384119857916        0.26895673909910
O            3.22753066142777        5.35156687883793        0.30927500269369
C           -3.60845662566637       -5.91815745261525        5.67223897880116
N            4.40396657042871        4.53754187962576       -2.27930338038537
O            0.33316104653548        2.65780096973609       -1.35101239010735
C           -3.22966470540541       -5.06195125750124        4.65600789537025
N            1.30682780653766        2.21856653042838       -5.86367068833527
O            3.46596084715550        3.13993742057361        2.90864875886714
C           -4.06599634679538       -4.86231376486001        3.55417660304971
N            4.19227713719283       -2.23550406655907       -5.16788251026802
O           -2.88362027301582        2.95596076337212        2.67447109232992
C           -3.59645715160486       -3.92222019965977        2.52769795202072
N           -0.95087636571753        0.31373599070219       -0.58436027270654
C           -3.14655906068316       -5.69499179867101        0.81372629256609
C           -1.68547189613377       -6.14270154790208        0.88328512387862
C           -3.27388531250527       -2.59312004122464        2.69993137863099
C           -3.38360236368641       -1.81550724018715        3.97575876630097
C           -4.44417147415008       -0.69059361989903        4.04530088243829
C           -4.59978724959644       -0.26913360762734        5.51060374038674
C           -5.78386324484434       -1.19335380331289        3.51369357106474
C           -4.02757878642764        0.54066210415008        3.23280364788131
C           -2.25518948844518        2.12345738327761        3.29356179769269
C           -0.85285451679044        2.33653491572808        3.84446606014585
C            2.31108651036178        3.06507094126597        2.49672186724249
C            2.00143204137448        2.92108870510166        1.00192108382356
C            3.74497304696869        4.28964989676402       -0.02174864010584
C            4.95836911747367        4.22607522243159       -0.95545077830952
C            6.11896177047032        5.10631813641806       -0.49170768095346
C            7.27066056868997        5.06857602333908       -1.49219829088347
C            6.58780118900892        4.57761211567738        0.86538649933143
C            3.91167141867808        3.49329545699003       -2.95028659926052
C            3.24978148755172        3.66393715446941       -4.33088667900898
C            1.73761711126675        3.83443887833228       -4.11538745710499
C            0.92189634986504        3.52486087310856       -5.37556181311830
C            0.72921668940915        1.12397780748159       -5.31468932434785
C            1.48783447137370       -0.09600320355094       -5.37728337896294
C            2.00694343898787       -1.15669078832780       -5.13048605674676
C            2.76013764682275       -2.38188616858933       -4.86266563558607
C            4.45322817345071       -1.83005407661243       -6.53698090464616
C            4.91858160396587       -1.39398575571770       -4.23246943914307
C            2.55766913844564       -2.71369037253863       -3.37409421809370
C            2.17130337518137       -3.53362100296911       -5.69623470224813
C            2.66993705530272        2.21070901382974       -6.34190836623806
C            3.62247712106646        2.43774261180050       -5.17327899318821
C            4.14264943430793        5.92959235096645       -2.58769093777117
C            1.36804355837771        1.58719150945528        0.61251051475480
C            1.07509650958637        1.53091478701838       -0.89912944576773
C            0.32934736858739        0.23498229228331       -1.24646740778051
C           -1.73758287797567        1.37529447624307       -1.17708919558305
C           -1.01153503741844        2.68962085989226       -0.89049300342260
C            1.47749869402905        3.45367738686804        4.74465406952194
C            0.21404317882167        4.07176906699100        5.32436282780334
C           -0.95542170198097        3.08954433754270        5.19724213364501
C           -2.72295187174937       -2.15351000408228        1.45675877358783
C           -2.75871548865310       -3.26167246081148        0.57433187450273
C           -2.27202236351543       -3.17468875710348       -0.72658486417071
C           -1.71066765479364       -1.98516801799156       -1.13611094553308
C           -1.61052813185421       -0.89793457533105       -0.25584494019122
C           -2.11246099171661       -0.97851479937903        1.02762346402427
F            3.73807789459211        4.79068436137163       -5.00532945423056
H           -7.81851786525861       -4.88652835023094        3.85414354063513
H           -7.09613263190258       -3.50184564316366        3.00101511574999
H           -8.25087524708981       -4.56273583672172        2.17309776983385
H           -5.84805641648513       -5.01795935061668        1.52227684344781
H           -5.28550694579655       -7.92565504289891        2.16555365409951
H           -6.75062463823427       -8.50828001959090        1.34894344124213
H           -5.72567093265981       -7.28670337525962        0.55433853282188
H           -5.18623158887502       -7.25101174605850        6.30340977176464
H           -2.97844196395362       -6.08516869921130        6.52989897485015
H           -2.28030355225179       -4.54910729231173        4.69022985488986
H           -3.74584531039009       -6.32759369603619        1.46831499743298
H           -3.51715819993905       -5.78840457701367       -0.21043778528171
H           -1.31177044826329       -6.04720581080029        1.90022214352223
H           -1.60703830160917       -7.18148857652413        0.57786451009369
H           -1.06578659452943       -5.53536858958415        0.22908450798118
H           -3.62452433568929       -2.51913759805773        4.77272537038401
H           -2.41145209751549       -1.37112019140142        4.19533764789541
H           -5.31905679374496        0.54265990716280        5.59475213430343
H           -4.95603406439571       -1.10325685524096        6.11061739262851
H           -3.64725761426362        0.06874922545236        5.91083611281519
H           -5.68928955131817       -1.51371516343846        2.47922953400692
H           -6.10708375386719       -2.03853166715627        4.11760900416412
H           -6.54219496292606       -0.41502923386960        3.57230796156292
H           -4.70539151440069        1.38112384379366        3.41686667593776
H           -4.03108076937839        0.32861574120796        2.16020485157816
H           -0.38569169778846        1.35754138874012        3.98578046511948
H           -0.47554612327433        3.96416479350880        2.67076394341834
H            1.33989636375139        3.74826166553730        0.72021949519542
H            3.74229917126282        2.26219022279769        0.01302734787562
H            5.31338643809909        3.19347897609504       -1.01722637287333
H            5.76820833087312        6.13275782840488       -0.35923561470967
H            7.62220724870101        4.04762480562903       -1.61832714894736
H            6.96781981443018        5.44837164522017       -2.46323412654870
H            8.09315738019340        5.67426509185000       -1.12343152635366
H            5.76560200362581        4.54597717969975        1.58092308845726
H            6.98400336763207        3.56946283100986        0.76330899266430
H            7.36937544616791        5.21680496693155        1.26441989865173
H            1.42236157623300        3.15666718966991       -3.31845629264999
H            1.53114001824556        4.85250295683275       -3.78421785869466
H            1.11355540767013        4.26253448450792       -6.15782262064448
H           -0.14146850039263        3.51328872879255       -5.13064036152070
H            5.52906762865784       -1.85663389055565       -6.70122813185146
H            3.99133177604263       -2.52871269442944       -7.22722510057319
H            4.08997779655075       -0.81584199759556       -6.76113080044193
H            5.01971161743960       -1.90247241698871       -3.27730369970698
H            5.91817983503964       -1.22446719265670       -4.62761746037846
H            4.44710176965057       -0.41494108483048       -4.06512433712000
H            3.17136487428211       -3.56932333114713       -3.10964179790807
H            2.81491829759208       -1.86790299945817       -2.74173837959672
H            1.51255100049991       -2.95415710467493       -3.19572084537813
H            1.18156909520787       -3.78468028155585       -5.32539685238891
H            2.07673174911763       -3.26487882395571       -6.74424458824456
H            2.82126525323476       -4.39894214564006       -5.60325543578196
H            2.88956608745869        1.25593628282989       -6.82047710770234
H            2.77076635491061        3.01254043671891       -7.07731753392786
H            4.64580254233934        2.56551729555745       -5.52813270438165
H            3.58880832452140        1.57170932511630       -4.50899397273391
H            4.93533705221271        6.34800826417581       -3.21098039548749
H            3.19270230535740        6.04267223507712       -3.10453941283707
H            4.07683506727569        6.47664571125999       -1.64962210736632
H            2.04911179622790        0.77273460120413        0.86048984337745
H            0.43849430413814        1.44867070494224        1.16068802347237
H            2.01192111268451        1.58544615373418       -1.46558762521131
H            0.88323533383980       -0.62934548124687       -0.87916527452504
H            0.23530369120850        0.16340906215474       -2.34579730460957
H           -1.83044062561162        1.24274723311529       -2.26946152452306
H           -2.73136326634179        1.39556219109723       -0.73080109348666
H           -1.03780865610808        2.88925558421471        0.18757822922482
H           -1.47688014612227        3.51940547489390       -1.42547583684245
H            1.72624896842193        2.51900557617115        5.25716935997516
H            2.33622972007705        4.12333559742361        4.82492401673678
H           -0.00779710857538        4.99440491812090        4.78716714659419
H            0.37813182842198        4.32665134703219        6.36918940198161
H           -1.89883108106041        3.63550848751115        5.25237662686970
H           -0.93304245197879        2.36398265964570        6.00791392530423
H           -2.32107098492557       -4.01659370345085       -1.40051816963031
H           -1.32707188997967       -1.88398662638748       -2.14158609068567
H           -1.96963665410242       -0.13806216638877        1.68292048577442
