151
 energy: -221.324217856483 gnorm: 0.005175672963 xtb: 6.7.1 (edcfbbe)
C           -9.12607466319946       -3.75101678957094        5.31882030531400
N           -7.41645416931483       -5.58600172995800        6.58060243752047
O           -8.35088795185916       -5.51379201622230        3.78195031464045
C           -7.95721005169763       -4.38840812378340        4.56701805213379
N           -4.91473447663185       -4.46589337930136        2.98824098174863
O           -3.15826971063396        0.70735630749932        4.76712489358576
C           -9.25569152005913       -5.22276865036404        2.73841917035221
N           -0.65347543515346        2.77753890472314        3.30517012686723
O            2.92518979973861        0.32371718803156       -8.76333523307185
C           -6.92745077703425       -4.90848983121031        5.55063748521669
N            0.68236868550657        3.10849205041714        3.54519503040519
O            4.24868791729094        1.79916547949757       -3.26233106852071
C           -6.59374050492077       -6.06736965510899        7.49327912781921
N            2.27045481959643        2.48954783144818        0.32391531215671
O            1.59240552715698        4.48077786988343       -0.46045502652992
C           -5.22010966407751       -5.88072222266910        7.44757961523908
N            3.39655932226747        3.81778536223882       -2.72971655124612
O           -0.36416530928728        1.31338033139430       -0.89113084257745
C           -4.70110354488405       -5.17615373620071        6.37832515541869
N            3.90741918675319        2.12108862312199       -7.78356902974557
O            2.81879161793504        3.11712101856692        2.85660361874363
C           -5.55501549678872       -4.68507722582124        5.38840533773611
N            8.62743088412521        0.33747305008354       -9.12726171944882
O           -3.35107029707035        2.49846350722194        3.43594425522098
C           -4.94732275125715       -3.95709295764843        4.26826427579673
N           -1.77632997235279       -0.56362570424083        0.63155340365351
C           -5.36285766537062       -5.78337633938067        2.60859900080077
C           -4.36966128779876       -6.85824411487264        3.04859326316731
C           -4.23812920347960       -2.77919603910471        4.33450088478595
C           -4.03739023019682       -1.92187003322504        5.54193002121615
C           -4.95178939086900       -0.67730114456963        5.63898573680806
C           -4.81750485430883       -0.08391310198675        7.04382460017685
C           -6.40795258275210       -1.05709212911075        5.37807256967358
C           -4.54727246340259        0.38224271948508        4.60739955926991
C           -2.68477495099961        1.74646037433676        4.11260759269953
C           -1.19033320602910        1.90573635363527        4.34486576765879
C            1.63623414423920        2.87927457232943        2.63091270697240
C            1.17689770982687        2.36372888817759        1.26301248100437
C            2.41003835838437        3.56648330953371       -0.45719353831003
C            3.67689082247787        3.56668442399824       -1.31780852858250
C            4.68970590319256        4.59367588489664       -0.76190452550089
C            5.95016545827307        4.61524749673943       -1.62458524204869
C            5.05606733414678        4.23836336030151        0.67673808307231
C            3.82864923105953        2.90832561136899       -3.60886826459498
C            3.82549676187489        3.19852049448037       -5.12121215782888
C            2.59053895868563        2.56486049007682       -5.77071006459315
C            2.66044877205414        2.66616892744585       -7.29758147838508
C            3.93903667926707        0.94311960670977       -8.43373010130935
C            5.25418410197169        0.44979391485825       -8.75332150527168
C            6.29965742622516       -0.05806431673232       -9.06844584195250
C            7.58237035541998       -0.64480667815045       -9.44799469442667
C            9.94011441783661        0.05047857778644       -9.66623764066822
C            8.72026939441001        0.65771861349961       -7.71600328142302
C            7.72643262576086       -1.99324276846000       -8.71189907597795
C            7.51327229927881       -0.89102497137100      -10.96383978215180
C            5.07257467462239        2.79174784798174       -7.25981717752682
C            5.11315116851927        2.63776635699789       -5.73865603823415
C            2.76250593687790        5.07691748056375       -3.06813637974321
C            0.67815435564425        0.91903331223000        1.31587242387252
C            0.32834581587539        0.37403409072737       -0.08202985632350
C           -0.49153348568611       -0.91788945190707        0.06118789280129
C           -2.49660188471384        0.30824144755241       -0.27655365176839
C           -1.67966654072095        1.58847338580272       -0.43810750488128
C            0.99206102342089        3.68499903475288        4.84628836566463
C            0.54431913514162        2.72557605432192        5.94465604125690
C           -0.94537473293530        2.43428175153945        5.77210697466121
C           -3.71909055178233       -2.55416711636964        3.02679731277148
C           -4.15634890669513       -3.63271430652049        2.21552295981694
C           -3.80005258404617       -3.70934649931904        0.87215466681791
C           -3.01592634241120       -2.70646343319472        0.34541027814664
C           -2.56332432150576       -1.64387298917585        1.14123890281556
C           -2.89773843890632       -1.57356265276730        2.47588945962781
F            3.82761738950380        4.56894921587484       -5.39511406976545
H           -9.79552980712653       -3.23310517102478        4.63547746517736
H           -9.67115314458604       -4.52773483338042        5.85100465587998
H           -8.74465713034018       -3.03392626112209        6.04045347390752
H           -7.48805181914213       -3.64329518573339        3.90325572502396
H           -9.34476137465271       -6.14123657470509        2.16058247537546
H          -10.24001397561919       -4.94285955318036        3.12337645795888
H           -8.87076691218472       -4.41916349508844        2.09994685008119
H           -7.06288433002746       -6.61569406432845        8.29857326726908
H           -4.58085820547927       -6.27760574887197        8.21929040272116
H           -3.63705102209634       -5.01176362486641        6.28909470025530
H           -6.33926849540267       -5.97760666512976        3.05991981803752
H           -5.47346518150659       -5.79968904148213        1.52268077819241
H           -4.67825044276144       -7.82547969018715        2.66339897536284
H           -3.37363621719397       -6.63002138366264        2.67470441229725
H           -4.33054345724572       -6.91471254457755        4.13419422526772
H           -4.21834578617888       -2.52877072411374        6.43057612926851
H           -3.00172938118760       -1.57968054505386        5.56333522038477
H           -5.42385095600730        0.81416856600813        7.13614717419992
H           -5.15163760379680       -0.80084832509034        7.78863531155492
H           -3.78202793640247        0.17437613613639        7.24835240480968
H           -7.06021052860106       -0.20021087282583        5.52670453237461
H           -6.53432877205872       -1.41305706596989        4.35914157020376
H           -6.70896289703320       -1.84814052904768        6.05927732972758
H           -5.13857725006703        1.29509062781392        4.72959105605544
H           -4.69540782318633        0.01159074971662        3.58905396688257
H           -0.71301836003994        0.92448539554463        4.24446220930678
H           -1.23024567283532        3.61778904801054        3.23871320328741
H            0.38489796762488        3.02760853750685        0.90171687724024
H            3.02196152900047        1.82162904540896        0.40523662918601
H            4.12958931751481        2.57084947137562       -1.28343783496112
H            4.21874058180428        5.58094319319066       -0.77436119902939
H            5.73190467825837        4.91461683626365       -2.64675347684644
H            6.66790658631644        5.31637933590483       -1.20897646366881
H            6.40316916342640        3.62623436477239       -1.64867444123356
H            5.77560709497742        4.95562463057004        1.06132827216949
H            4.18648221465076        4.24684987619047        1.32938021528121
H            5.50400254986786        3.24810859460497        0.72183557540722
H            2.55895707774094        1.51824092381026       -5.46425146865199
H            1.68685666280763        3.05891458492012       -5.41304253299887
H            2.59587938898237        3.71515484272223       -7.60183920772111
H            1.84327220446720        2.10261586452307       -7.75097825898018
H           10.40003426908403       -0.85234340454771       -9.23560535090388
H            9.89222756105131       -0.05418204681867      -10.74557143041072
H           10.58428973521369        0.89811586563499       -9.43570443438957
H            9.20047875634135        1.63162646315081       -7.61562364993641
H            7.72453823828866        0.71525838865368       -7.28118492740508
H            9.31078699205822       -0.07611862860416       -7.14783910577766
H            7.67380321332850       -1.85430713083637       -7.63461782227371
H            6.92274067962380       -2.65979874571822       -9.01180082158732
H            8.67767580164816       -2.45352784428419       -8.96604711888545
H            6.54636556801680       -1.32200578344544      -11.21348284594240
H            7.61931600617312        0.04970533169586      -11.49651572949392
H            8.29010933492131       -1.58216122205971      -11.27781808576147
H            5.97167652887998        2.37411073333998       -7.71116396723882
H            5.00285339081537        3.85351784332252       -7.51534684186853
H            5.96742991012299        3.17784543709015       -5.33075706249269
H            5.19551446852089        1.58873413534457       -5.45683362786577
H            3.49945808206247        5.84328814579474       -3.31179759169027
H            2.08831197084084        4.95122954641892       -3.91054545937007
H            2.17674043456999        5.39514142428663       -2.20954952512339
H            1.44516619802013        0.27916952698150        1.75258258697328
H           -0.21763702107532        0.87841319410152        1.93166126568889
H            1.24278041173375        0.17387585504736       -0.65029830536969
H            0.01621680899452       -1.61045875531546        0.73277950399494
H           -0.58766167006460       -1.38849080648090       -0.93317550522232
H           -2.64875965892277       -0.15936084355330       -1.26654028048217
H           -3.46920133398518        0.54870658253043        0.15494480170623
H           -1.65637028209577        2.11742038537292        0.52210405205047
H           -2.11343054711625        2.23812453179370       -1.19915641573853
H            2.06538048114933        3.86661143779643        4.87387148763891
H            0.45936312893188        4.63758620582548        4.93566880517501
H            0.73442163900527        3.17053123727989        6.92011451532570
H            1.11534381150889        1.79913609791011        5.86776771575036
H           -1.52244690583690        3.34882526326694        5.92480860409672
H           -1.27925436400570        1.68845323503096        6.49178977859546
H           -4.12510038767193       -4.52842331714414        0.24818525515395
H           -2.73605091011800       -2.73949706649336       -0.69779460438541
H           -2.50618096829930       -0.76467101161790        3.06769908864134
