151
 energy: -221.318956608817 gnorm: 0.008200630118 xtb: 6.7.1 (edcfbbe)
C           -8.36735148830325       -1.33130830365255        7.25692579332484
N           -7.60832624371781       -3.95149338377654        7.65685744074522
O           -8.92641921990895       -2.48512155496072        5.17121980755537
C           -7.86646720410036       -2.14029869342057        6.06243081415624
N           -6.62011811227964       -3.53327444367593        3.29089835869497
O           -1.12029366668914       -1.10577093880453        4.89193597107043
C           -9.29455135283531       -1.46448678056238        4.27137120115860
N            0.89769649929131        0.45835226461894        2.41218432305588
O            6.68915088184469       -1.07049532204567       -4.91744865056829
C           -7.22031250885532       -3.44315572591608        6.49820157955572
N            2.07549684341050        0.21458317470293        1.69775775378724
O            4.24797151177843        3.83213647171970       -2.87939174574575
C           -7.05907236202774       -5.07515298016665        8.08560636504420
N            1.18555246205214        1.88919082082640       -1.26249879455518
O            0.31036809952173        3.62301198333989       -0.10346422542942
C           -6.07078387306790       -5.75111446177469        7.38789916754000
N            2.05299584781109        3.47566226484439       -3.24942606428641
O           -1.64026830666213        0.84326096027345       -1.79144407244451
C           -5.66359226440387       -5.23139258822676        6.17130742103719
N            6.15767325966653        1.07796880327133       -4.42183422179676
O            3.18052094554573        0.32715468142496       -0.26189692040560
C           -6.25175710885869       -4.06370423230423        5.69402130008326
N           10.92393911231376        0.55462756668028       -7.63358112404726
O           -0.56437179227793        1.05894668760215        4.64013259941381
C           -5.82356251030981       -3.48953391806448        4.41263918053711
N           -3.38497292980114       -0.78622136889760       -0.27016919217782
C           -7.75935776399718       -4.40206930662370        3.12965471769716
C           -7.32792320356695       -5.81769314117768        2.74514171725697
C           -4.65261346076527       -2.82106279976778        4.14484840234850
C           -3.49687467520008       -2.59359835958763        5.06216310834931
C           -3.43500230173689       -1.20472729097441        5.75143888930587
C           -4.16358259236587       -1.24989192012692        7.09770058649087
C           -4.03999825356536       -0.09012049341656        4.89604589803266
C           -1.95636187582231       -0.87202663242091        6.03693106298322
C           -0.47369031263135       -0.10910367464870        4.32617957040192
C            0.51711491045011       -0.63069385452875        3.29575430901573
C            2.13836056319246        0.44021017191141        0.37956283185088
C            0.84083060936194        0.84833590259985       -0.32270199569100
C            0.99397461432934        3.19644034416799       -1.02435311784157
C            1.74189119611700        4.12710274622933       -1.98490542580263
C            1.08314159075809        5.51940498655652       -2.09922972559457
C           -0.36306530307053        5.50796227968212       -2.59078300481427
C            1.94363477722358        6.43398965697667       -2.96867359306155
C            3.34879535971854        3.37864525366559       -3.58817240376427
C            3.74047202681816        2.59904768589088       -4.85470654156505
C            3.74076948208022        1.09216552267070       -4.55670403961510
C            4.95731621980306        0.71087106036118       -3.71060508473693
C            6.87780483694518        0.13796141412640       -5.06355309020642
C            7.89056727529212        0.62072703514433       -5.96614230254456
C            8.70226568301635        0.79642589061833       -6.83948525343694
C            9.61628584258327        1.15107707107255       -7.92344605028892
C           11.49572716431969        0.97862158878563       -6.37101277379141
C           11.90078922216059        0.65496030817931       -8.70047262539191
C            9.01797687871575        0.52704166151334       -9.19695790034463
C            9.62136424457510        2.68999680860777       -8.05508017348410
C            6.28697247073873        2.50031883929668       -4.62305360585571
C            5.09749827591713        3.04110825386167       -5.42061513018777
C            0.93130153408267        2.98331028120795       -4.02999294396113
C            0.29823216532564       -0.39095181566182       -1.05168374300612
C           -1.21806068623998       -0.39722951357045       -1.25084792194151
C           -1.97429322766919       -0.70794705143389        0.04928415492619
C           -3.84466799909631        0.48370624268381       -0.80699683587595
C           -3.02942941477050        0.82121713730126       -2.05773924508714
C            3.23874907897507       -0.25015879608116        2.43849913496129
C            2.86089657232709       -1.52589392696390        3.18426757810745
C            1.69197947674902       -1.21402628761267        4.11306570744651
C           -4.72340386022258       -2.42352618581131        2.77659509766565
C           -5.96381898945072       -2.88557904008087        2.27876108820096
C           -6.34389125509338       -2.61659479397292        0.96687797066190
C           -5.48218280723560       -1.89385240793070        0.17574482296293
C           -4.23149528737982       -1.44321086981507        0.64572455800645
C           -3.85074138611953       -1.71938497293513        1.94598846338179
F            2.81377483208330        2.84874155709185       -5.88045710478291
H           -7.54555371548211       -1.13367197015256        7.93866619525352
H           -8.78612229171350       -0.38600957453350        6.92273303682396
H           -9.12950359502724       -1.90091412750185        7.77960338236241
H           -7.11867865897414       -1.55619420900453        5.49894830360708
H           -9.70287064314315       -0.59220423831672        4.78933146513872
H           -8.43742010094630       -1.15312662268991        3.66201917177470
H          -10.06151212039037       -1.89554232967128        3.63205206229831
H           -7.42855584082484       -5.43435935835570        9.03620539035853
H           -5.63604459801408       -6.65501597666203        7.78233303658432
H           -4.89825310261682       -5.72108080512847        5.58609312345232
H           -8.31919706671709       -4.41991183195113        4.06694918446209
H           -8.40183886906636       -3.98260537965887        2.35339624271693
H           -6.72682665671613       -6.25686301078012        3.53707363784025
H           -8.20439698640781       -6.43974501442699        2.58866697148107
H           -6.73979633891834       -5.79821699394559        1.83094797002314
H           -3.50213653991495       -3.35824509897104        5.84156730675231
H           -2.58856379646656       -2.72129570764006        4.47047389157659
H           -4.06190331687898       -0.30137564635906        7.61606142259111
H           -5.21855983094463       -1.45273374600051        6.94367303824522
H           -3.75674837255654       -2.03161078143780        7.73437837255616
H           -3.47571167129064        0.05971511105557        3.98019407755187
H           -5.06648848590509       -0.32601877876548        4.62679616608009
H           -4.03535274160654        0.84643390710107        5.45108514817686
H           -1.56698779722248       -1.53117891593465        6.81740338711301
H           -1.84810719649363        0.17293977163709        6.34237795583469
H            0.05597692333526       -1.42247193076999        2.69614337417782
H            0.97432527577299        1.32334276553542        2.95438017284214
H            0.12339251596069        1.25805738216825        0.38760954020496
H            1.91545070828386        1.62663822634868       -1.91197972985520
H            2.71790457994749        4.29412029003448       -1.50104265173404
H            1.07649151815453        5.90369934032666       -1.07295111296224
H           -0.95135968321998        4.78975449295108       -2.02424707733998
H           -0.79513560300941        6.49358585940221       -2.43535488277822
H           -0.42674490220445        5.27600050040202       -3.64907470583019
H            1.91938545034717        6.10793748440603       -4.00694618470758
H            1.56984837577682        7.45293282473674       -2.92095510137657
H            2.97854092007813        6.42607111071694       -2.63325205124542
H            2.83096394126538        0.79078623490332       -4.03808368120965
H            3.78395384019423        0.56236394806293       -5.51196335745526
H            4.97417552756885       -0.36647679991403       -3.53620741716077
H            4.93531714199024        1.23028363211794       -2.74793089405328
H           11.93295906661907        1.99053034803738       -6.41118052490301
H           10.73105635267578        0.95378301412830       -5.59433484844931
H           12.28614129625886        0.27785706169875       -6.10067433043964
H           11.51304704590126        0.20582545264520       -9.61614118796662
H           12.21910924201536        1.69325098604670       -8.90965647674108
H           12.78145767334679        0.08896759162840       -8.39485938948297
H            9.17879118269861       -0.54811056029147       -9.18765258771591
H            7.94845073394362        0.71826431299392       -9.22624465866268
H            9.47152211495464        0.95795213382705      -10.08567471738668
H            8.61676704879424        3.03665872756120       -8.28131396609998
H            9.94807188174000        3.15540670428975       -7.12851683938278
H           10.28480316240208        2.99411531354686       -8.86051817101562
H            6.31096371928247        2.98468217858232       -3.64226634465900
H            7.21427551999814        2.71042178889283       -5.15710047628700
H            5.14576575228745        2.66863902149219       -6.44692765587368
H            5.14218771844063        4.13069484375064       -5.44149818761964
H            1.13821340716108        2.00530519177662       -4.45593583771688
H            0.06881023926728        2.89488280474488       -3.37559460258510
H            0.70215951217080        3.66586432049296       -4.84887811188298
H            0.79120530717026       -0.45136388343337       -2.02281588034297
H            0.56322482481013       -1.28449000994420       -0.48551802690484
H           -1.47095877561363       -1.19490163475767       -1.97153922595248
H           -1.75433620136329        0.07497713199106        0.79483299031324
H           -1.64651529503894       -1.67621570272391        0.42908426332359
H           -4.90124358820040        0.41719247074870       -1.06420810802339
H           -3.71105671084451        1.29134933155061       -0.06441880544335
H           -3.28178894122352        1.81787811579215       -2.42281520560795
H           -3.23695141166754        0.07456803192279       -2.83885106633402
H            4.03394969448499       -0.41857580449785        1.71204700936948
H            3.55072280745141        0.52802882691481        3.14341701537056
H            3.71392683608459       -1.88693782593462        3.75646969891185
H            2.57199300890851       -2.29405793359061        2.46514439957409
H            2.00646758337192       -0.47776097525462        4.85785564324098
H            1.35002296334577       -2.10868105749474        4.63125348226941
H           -7.28639015128309       -2.96449432213634        0.57154546171141
H           -5.75489512846581       -1.68079023227888       -0.84682930537728
H           -2.89846245469670       -1.38892734414968        2.33004829188264
