151
 energy: -221.321295590131 gnorm: 0.005296517880 xtb: 6.7.1 (edcfbbe)
C           -6.32469157937560       -5.30982412308306        0.76511243811042
N           -6.28966148137279       -5.56164115914016        3.74827863793908
O           -5.22804779889427       -7.23912089833519        1.86218577734343
C           -5.17356751379913       -5.82834045114616        1.64515746478568
N           -2.10821175976858       -4.55994867953249        2.19818777942179
O           -3.18928968902680        1.14350167460421        2.11587085805101
C           -4.86514403099464       -8.02583045868446        0.75224774776969
N           -0.26835715595580        3.21946946864653        2.12204028614790
O            0.07584442782433        2.72695765590007       -4.65134281692814
C           -5.22730352883189       -5.22099517976362        3.03246756892192
N            0.68332931540362        3.60963795777173        3.06991696703787
O            5.22227448634525        2.46365143663693       -1.29643180933848
C           -6.40924966498041       -5.12251037417410        4.98723050011907
N            3.71965850833898        3.35907643059690        1.12118542364880
O            3.17283855852566        5.28669318074861        0.09437121139480
C           -5.45796477972849       -4.32127134647746        5.59997636375493
N            5.46761839699706        4.69275120896222       -1.37055487960000
O            1.84176723493899        1.87154641483816       -1.20917747216953
C           -4.36335967200412       -3.93364617650489        4.85009352911411
N            2.31404923517174        2.65233558101812       -5.02059700974498
O            2.85691483830446        3.80208151595279        3.61859999603075
C           -4.23096165837970       -4.37158267956052        3.53067888450359
N            1.23741019585775       -2.79084482380155       -5.18564989911735
O           -2.35686075544066        2.51016135456371        0.54958660628240
C           -3.14630023189714       -3.81885232911402        2.71327497414719
N            0.65643478203892       -0.49330663570046       -0.31265337643750
C           -1.78960833039318       -5.91657227683550        2.56944893642723
C           -0.82505860705128       -5.95788531005225        3.75310518333422
C           -3.02422063306975       -2.49585048335228        2.35040781220748
C           -3.92117395568096       -1.39604163582815        2.82354477313616
C           -4.80496270645996       -0.67557071204853        1.77496035608641
C           -6.09419580404054       -0.23060168284958        2.47532119703462
C           -5.15658603066802       -1.61969285143917        0.62498680676786
C           -4.11748792444470        0.57408125140532        1.18155884474216
C           -2.33138029818660        2.03773882914673        1.66490440007280
C           -1.29890349877646        2.38483195339636        2.72407793569113
C            1.99251837750477        3.48507909243110        2.80863600376743
C            2.35240104721527        2.98976580774319        1.40529457319263
C            4.02196341994153        4.48357333955358        0.47214211831730
C            5.50106428246894        4.65572119682571        0.10198587398148
C            6.11720487786094        5.86134990643372        0.81729237282049
C            7.62913713137259        5.91532400983346        0.60929379009170
C            5.80981510269558        5.74506099709744        2.31221723838078
C            5.12160287558863        3.51855158305532       -1.92597809698650
C            4.50683536078488        3.46751410980620       -3.33722092783515
C            3.16042787255268        4.19618715372625       -3.33883692230395
C            2.48206121809070        4.04994135737317       -4.70013886302061
C            1.10225658608763        2.08709683732441       -4.90349775493838
C            1.00612550207707        0.67252302975894       -5.14410089622860
C            0.67646267592596       -0.47252297832413       -5.32299624037813
C            0.21260161931429       -1.82714479274360       -5.60516672361912
C            0.90567954678163       -4.17674452760339       -5.44430090542217
C            1.68226810908802       -2.62416080826314       -3.81802944505819
C           -1.14899446554821       -1.98556952875802       -4.89479872748255
C            0.01750949692426       -1.90103071884439       -7.13045625215067
C            3.55653241117358        1.92353188426679       -5.09918583881370
C            4.30174311119159        2.01185189682531       -3.76462847473350
C            5.40312327193425        5.98818686441338       -2.01118368950043
C            2.16405520387686        1.48592364164871        1.21523967053279
C            2.48079967600202        1.05743337488542       -0.23098870989383
C            2.08902153583741       -0.41834922388867       -0.42937556073911
C            0.00152391353283        0.28085406625886       -1.34002595473201
C            0.42735399785074        1.74297077314996       -1.21541344862857
C            0.19626057826750        4.25613579131154        4.28081407857023
C           -0.85776447591712        3.38358916986629        4.95593889829062
C           -1.95549376156002        3.04449896784124        3.94880657843662
C           -1.83928793186445       -2.40735518923276        1.56274519253398
C           -1.27978712910226       -3.71008570397484        1.51280944427671
C           -0.07443318963297       -3.94486546433396        0.86187293688757
C            0.55894352762605       -2.88630220600315        0.24530721576797
C            0.01317068419537       -1.59136094516800        0.26752875622503
C           -1.17934108538976       -1.35713460168435        0.93325657032387
F            5.37208779937252        4.07296614686897       -4.26668188091137
H           -5.94398204452962       -4.66511204482002       -0.02175358590497
H           -6.84913116926438       -6.14621950300331        0.31204939602563
H           -7.04257733094802       -4.76029825531809        1.36697090467888
H           -4.21275120216994       -5.58781373309035        1.16693540224497
H           -4.95104249370979       -9.05794441994545        1.08537363225040
H           -5.52823467019571       -7.86495732281815       -0.10258851753616
H           -3.83261868299139       -7.81956108741131        0.44619325517984
H           -7.30903396865514       -5.42912557208860        5.50217398036244
H           -5.57931571866501       -3.99981441303009        6.62140564379073
H           -3.60241862149213       -3.29492244438311        5.27415359226834
H           -2.71557763393876       -6.43301099351827        2.83379777567177
H           -1.34481588610166       -6.41742532732994        1.70464648326292
H            0.09407863656389       -5.42992620103798        3.51176539926322
H           -1.27887021956272       -5.48494554657230        4.62104775037067
H           -0.58651136033267       -6.98747242616149        4.00187966270985
H           -4.59497743674186       -1.82964054769440        3.56316495611387
H           -3.31138625760551       -0.64909087519681        3.33475995109712
H           -5.86611722980711        0.44335474545185        3.29687069765048
H           -6.75245016007370        0.28091890010501        1.77680015405290
H           -6.62497080795729       -1.09381464249471        2.86948716238950
H           -4.25776747689865       -1.94359246230000        0.10529586808917
H           -5.66348111245494       -2.49675300657017        1.01589433749983
H           -5.80961831299877       -1.12282977927941       -0.08779262938126
H           -4.86057310938794        1.33773082233602        0.92851218045275
H           -3.57177461464476        0.33049706792800        0.26356361954551
H           -0.82189851314845        1.44807349915114        3.04002034675821
H           -0.69449533933295        4.03259452047569        1.67494285924324
H            1.73089676194511        3.53462467575215        0.68632073937835
H            4.45028574467112        2.77257290602800        1.49421583991188
H            6.05415109851672        3.75389344491860        0.37958021254869
H            5.64738096045166        6.77602006450460        0.44956854523806
H            7.89299533861346        5.96555369823495       -0.44272721546731
H            8.03786914211143        6.78786146527517        1.11126370909972
H            8.09185016687835        5.02702926681198        1.03187018737576
H            4.73719639146638        5.72740212554742        2.49570165623389
H            6.23607005374889        4.83405866187767        2.72452877657206
H            6.23197782902364        6.59387890782776        2.84244401129926
H            2.54322366394116        3.74028730140814       -2.56095275729971
H            3.27573292555030        5.25157732506687       -3.10877848474266
H            3.09659388187012        4.51630394446439       -5.47584319147005
H            1.49491600648739        4.51475068269872       -4.68206832878601
H            1.79645570762369       -4.77400866757936       -5.25379240738252
H            0.09780579571479       -4.55445758764041       -4.80005125111606
H            0.62482325908062       -4.30723855164706       -6.48461941582702
H            1.87886327953547       -1.57092703590901       -3.62606963827590
H            0.95690314492286       -2.99043791680916       -3.07509700858470
H            2.61126881682566       -3.17963891343994       -3.68974452056817
H           -1.60176702096472       -2.93824969568809       -5.15559314946011
H           -1.02870586455909       -1.92956847115396       -3.81461252357997
H           -1.81353837376339       -1.18299201350553       -5.20381301821564
H           -0.62731196584286       -2.73289508387025       -7.39780094167720
H           -0.44687722873701       -0.98284036539795       -7.48229639208983
H            0.98219290050656       -2.01491302320907       -7.61563180668497
H            3.35025662467169        0.88144257719860       -5.34646201170268
H            4.16795131863432        2.36955778665972       -5.88988799430205
H            5.27013179008527        1.51780084831425       -3.83704950004426
H            3.72028731822275        1.52683686419315       -2.98009678553101
H            6.27211998357647        6.57057504100306       -1.71312582616177
H            5.42683246909163        5.88438485314328       -3.08943299966243
H            4.49831080916296        6.51659356102794       -1.70123640041512
H            2.82853887968481        0.94383557364782        1.88786648981364
H            1.13392406869952        1.22107755660269        1.44596351673981
H            3.54655912791030        1.20085345994611       -0.43757077802210
H            2.55738432496801       -1.02547867032002        0.34359258454086
H            2.44443927589064       -0.75121635482391       -1.41923591003338
H            0.28553426243412       -0.08349472026346       -2.34417328732292
H           -1.08084590731245        0.21181399989572       -1.24057312954342
H           -0.00174206047954        2.18032789358791       -0.30697557060780
H            0.07838325396654        2.31389889547651       -2.07836942332646
H            1.06071277654334        4.42077710021162        4.92335714913049
H           -0.23553953950971        5.22479779328088        4.00501674560399
H           -1.27546865375914        3.91834558418648        5.80772919877134
H           -0.39315340202322        2.46527575237762        5.31592338624897
H           -2.47033422508640        3.95499805130596        3.63473542347304
H           -2.68488891876786        2.36260920639422        4.38203117282153
H            0.36416074238288       -4.93071199804420        0.82966650938774
H            1.49161295040216       -3.05299953464061       -0.27351641147511
H           -1.56514661247882       -0.35303717259889        0.96970395137023
