151
 energy: -221.323200865392 gnorm: 0.005802726027 xtb: 6.7.1 (edcfbbe)
C           -8.65145179416205       -4.40663658974653        4.72163104285437
N           -6.73370301894960       -5.55510482694199        6.45404215002790
O           -7.28506883116663       -6.12590849148192        3.59919813453739
C           -7.27598290872149       -4.83787715104279        4.21290248383913
N           -4.00109338587082       -4.42254091853257        3.00205789551427
O           -3.83125826840283        1.29141354612989        4.21875380184518
C           -7.93230719484854       -6.17464048443893        2.34615875438165
N           -0.91674052605489        3.07152579734482        3.10855323881233
O            3.29563490478564       -1.34823553673272       -7.31565599405075
C           -6.29786754358358       -4.93461343379978        5.36561365988697
N            0.33660712767658        3.38112897371409        3.64888981484367
O            3.82286331600843        1.21770335364235       -1.57891188367293
C           -5.92861752420489       -5.67993738589086        7.49235949588444
N            2.65773087119594        2.63658852732998        0.92802285941312
O            2.49322722891753        4.71469355934592        0.06683433025574
C           -4.63746770128659       -5.17332065470151        7.51804790845948
N            4.28367859105301        3.40142106668870       -1.83240261565112
O           -0.14719578660771        1.87430123592076       -0.79954563735431
C           -4.17776815326843       -4.52353957308899        6.38816681764869
N            3.61866114972155        0.65656249872556       -6.30540923396504
O            2.56983535087399        3.44333489012758        3.43412859567393
C           -5.00853575951245       -4.40447682192654        5.27334203064266
N            7.57443861487220       -0.67570219764403      -10.19973733998925
O           -3.50326264556968        2.59909224641982        2.43082991551167
C           -4.47042310095772       -3.72198449329421        4.08685545630275
N           -1.46228486800403       -0.28752940254225        0.38540261939236
C           -4.04887993571697       -5.85321452374525        2.83416638621950
C           -2.82667317134153       -6.53870050074001        3.44235069221590
C           -4.19724827060699       -2.38011786715124        3.95154169963332
C           -4.55735071230790       -1.32830340872389        4.95114694415515
C           -5.65212119504810       -0.31568693700648        4.53020146792961
C           -6.26984984966690        0.27572520149934        5.80137001964310
C           -6.74220231320954       -0.99926593216190        3.70340936578458
C           -5.07913150492326        0.82837405023218        3.67856474227033
C           -3.11592638874875        2.11320468318358        3.47100653109358
C           -1.74986347088942        2.37373612964334        4.08261277523739
C            1.47223355326625        3.15972853918256        2.96560247103326
C            1.34674473293716        2.61563829800234        1.53829412967492
C            3.12813856520917        3.68034500399360        0.24579266651808
C            4.51083678560354        3.45445407718443       -0.38139049595848
C            5.51836272672850        4.50973985171700        0.08946711199819
C            6.91749522264740        4.19959899298734       -0.43642147486221
C            5.52803483140458        4.52685497375560        1.61841849874139
C            3.86479580025683        2.21816574097954       -2.29925021876777
C            3.49577415736709        2.04966879882863       -3.78771612729059
C            2.79466957530999        0.70654160412432       -3.99454127831491
C            2.44863015791424        0.51653632799385       -5.46724734278391
C            3.89593258877391       -0.27152872509921       -7.23667103383384
C            4.91247589422971        0.05554920154955       -8.20148788390017
C            5.57134839926069        0.22619114494456       -9.19773918639301
C            6.48614237084234        0.30844019452948      -10.33600827541624
C            8.40053703562891       -0.47138400120102       -9.02298305990178
C            7.13327988989825       -2.05755712305154      -10.26895792381690
C            5.66716127975864        0.02180983498647      -11.60671018104241
C            7.07121612627337        1.72423176283970      -10.44845349744238
C            4.32028370774826        1.90980283297129       -6.16085224684176
C            4.72576058318654        2.13256344085804       -4.69871719398071
C            4.21945678396585        4.67986763327837       -2.51292617413553
C            0.76355741824240        1.21256658057321        1.39607899997505
C            0.56652437116906        0.86731044157262       -0.09371072033348
C           -0.17297009144864       -0.47137226770640       -0.23291522659125
C           -2.24682613364745        0.69173173183068       -0.33725719655873
C           -1.48939832960463        2.02123020056824       -0.35541937487948
C            0.34769811065713        4.12986379415581        4.90027137227305
C           -0.48424808725515        3.40806479406265        5.95526886467733
C           -1.88572297943966        3.14668913658027        5.40612326214006
C           -3.47987448456738       -2.24381223796986        2.72697283206646
C           -3.36536552832437       -3.54416412450736        2.16936811107944
C           -2.65150668482775       -3.76649358148501        0.99743655079653
C           -2.04166524695563       -2.69181328209758        0.38694617519158
C           -2.13201213426601       -1.40063104170022        0.93039123742315
C           -2.84667152911408       -1.18038542698072        2.09258987875778
F            2.58316366845867        3.04563121261350       -4.16461187980477
H           -8.55329959729314       -3.48133713083634        5.28270491703988
H           -9.33897713671421       -4.24362630873914        3.89680597086249
H           -9.04225200371014       -5.17592115641045        5.38081762946295
H           -6.89745718290507       -4.10538454484393        3.48036134916486
H           -7.49661823537185       -5.44273164170006        1.65544033475159
H           -7.76834228743513       -7.18108380334858        1.96805239240348
H           -9.00623139233162       -5.99218804134530        2.43630148249111
H           -6.34448758820101       -6.20391662324440        8.34211506953810
H           -4.01475436905976       -5.28589118549743        8.39057376382007
H           -3.18036691392945       -4.10978539255994        6.34986360992636
H           -4.96095381603582       -6.23250103082265        3.30291495653824
H           -4.09910802227660       -6.06417881953110        1.76321492500550
H           -1.91257343759337       -6.12927092290377        3.01727558960453
H           -2.80681596884129       -6.39283041596661        4.51967757472285
H           -2.86335422003371       -7.60471312049967        3.23700934012025
H           -4.91521474425971       -1.84308044383513        5.84526013254942
H           -3.66362673651086       -0.76426055689084        5.22415654535332
H           -6.75058439637198       -0.50543605999422        6.38463997919393
H           -5.50314051107894        0.74568903197317        6.41158659935296
H           -7.01988486425519        1.02225512117230        5.54959477949611
H           -7.51764058579663       -0.28673198924378        3.43373955502224
H           -6.32476328545679       -1.41730916453581        2.79026185713106
H           -7.19215286538852       -1.80351563447101        4.27804013509456
H           -5.77902457667509        1.66943194990629        3.64587498279962
H           -4.90469896999540        0.49981649565293        2.64966376209915
H           -1.27958313177713        1.40365328100308        4.28414873663272
H           -1.39402093229884        3.91797062983540        2.79306885040847
H            0.73135680858312        3.33052041843412        0.97744503885700
H            3.24310269176091        1.82810303175267        1.07405061353012
H            4.87753174624298        2.46453978833088       -0.09640293580028
H            5.19125415437887        5.49264984124794       -0.25452667547824
H            6.93329769520372        4.12560425082290       -1.52034789268037
H            7.60789815066154        4.98150866177233       -0.13115652401288
H            7.26728198809095        3.25445875650561       -0.02688903321624
H            5.83361258488705        3.56165937210549        2.01468258356915
H            6.22222827491542        5.28273107051359        1.97487060288064
H            4.54080928994335        4.75380067974323        2.01616108455004
H            3.45456918389666       -0.08492779752769       -3.64178813229352
H            1.88276352349967        0.68466502782629       -3.39629713029630
H            1.71015651242494        1.27297414104047       -5.76543874540343
H            2.02933166276069       -0.47723852646010       -5.64006044715203
H            8.84251848169276        0.52016384212743       -9.04287909470471
H            7.84444425983315       -0.60019926297036       -8.08230929173546
H            9.20934577201325       -1.19955114899050       -9.04697160051023
H            6.71950926339989       -2.27087523850366      -11.25064858291245
H            8.00096838427168       -2.69897225338248      -10.12547860657861
H            6.38526002894880       -2.31061825735670       -9.50181560623115
H            5.01407541615576        0.86456984852396      -11.81622867153124
H            6.34345895265502       -0.12133920595882      -12.44386080644905
H            5.04393006643626       -0.85984412179708      -11.48544051568258
H            7.47132495945936        2.07153896036516       -9.50070901334971
H            7.86104188949023        1.72006797672993      -11.19362714027275
H            6.29365428894251        2.41706866792397      -10.75755951204033
H            5.20483683168348        1.89746537399504       -6.79907410732676
H            3.66268414624081        2.72868451848541       -6.47621449737623
H            5.20371056096992        3.10675630436485       -4.60818233565841
H            5.42778289723077        1.36428113687877       -4.37635368168706
H            3.54335205973867        5.33259766574694       -1.95560370580555
H            5.21309398364265        5.12861927881746       -2.54374308866455
H            3.84181997815302        4.58250728192800       -3.52067518335419
H            1.44207323112515        0.48165980681389        1.83519387810731
H           -0.19671017632545        1.15304304413952        1.90222195853664
H            1.53719197487473        0.82180041665216       -0.60052069307575
H            0.37365165939922       -1.26040821545329        0.28234645640731
H           -0.24609400217691       -0.72143729095578       -1.30608982154659
H           -2.43314127639736        0.35858586954968       -1.37453459068010
H           -3.20346401961861        0.83978274113127        0.16394518636401
H           -1.51554534745262        2.46231339406275        0.64721546394535
H           -1.94888625345048        2.71395283996209       -1.06189844930203
H            1.38935148123091        4.22925551425733        5.20422320744830
H           -0.06480950298109        5.12804514662142        4.70977782707913
H           -0.53569597407741        4.02108623477586        6.85395594033292
H           -0.00639385135376        2.46080037896576        6.20787835234067
H           -2.39782459785458        4.09349335346273        5.22007158471394
H           -2.47673668164693        2.56353208575004        6.11001696223272
H           -2.55693969067269       -4.75510229445007        0.57433777203107
H           -1.47429758590828       -2.84348294455867       -0.51929991618763
H           -2.85120254213766       -0.18615564956263        2.50353360078853
