151
 energy: -221.314208148487 gnorm: 0.006607215417 xtb: 6.7.1 (edcfbbe)
C           -6.76907376907296       -4.82877817076233        4.40802260780064
N           -5.13406980449501       -6.88155392088657        3.37846737221088
O           -7.08916314978892       -5.09595237546288        1.99187784959225
C           -6.15810841983540       -4.72845478565621        3.00969124231350
N           -4.31535292623121       -3.50598331693792        0.61394305466016
O           -1.62598981035477       -0.06011655468233        4.33451368934491
C           -8.03264591293207       -4.09502590310210        1.67995173003399
N           -0.76268612427475        3.34979902251596        3.81362054118200
O            4.68610222722376       -2.27070612035561       -2.47507643193315
C           -4.96935400621692       -5.66447634969118        2.88144772172135
N            0.37857498661278        4.14372428908134        3.97178004071595
O            4.14458146488389        3.60503455144582       -0.81387600932792
C           -4.13753252293794       -7.74733537868028        3.31987723899958
N            1.66570357448916        4.89264257743067        0.62623543017863
O            0.64765020942816        6.62132272337667       -0.42642942847748
C           -2.89838854352558       -7.44155165016091        2.77561681114222
N            2.70600082597963        4.76505957951979       -2.09899459071067
O           -1.73410517572805        4.34902562037370       -0.16052011767114
C           -2.71823807664360       -6.17561238479875        2.24665798875232
N            3.77182329498058       -0.35365697613136       -3.25955727764902
O            2.16388165486439        5.21129935439193        3.14933842800062
C           -3.76773157035578       -5.25912526726722        2.27775553369017
N            6.19225834557023       -4.20066739394965       -6.58251960772207
O           -2.95859441633252        1.74045334076357        4.43842235643799
C           -3.57982536032887       -3.92255345669037        1.70478708431442
N           -2.46654018412506        1.69186504796650        0.30639171365841
C           -5.05708966343187       -4.37208078816825       -0.26927604236045
C           -4.14551461217483       -4.98411826850528       -1.33093942586276
C           -2.73949013407467       -2.91771395041245        2.12727960578826
C           -1.75378441788010       -2.92774010012526        3.25147548016683
C           -2.27657269874247       -2.39597639569394        4.60562133855585
C           -1.14982351821918       -2.49181176213474        5.63738153085061
C           -3.46894166439079       -3.23101996847123        5.06952917939568
C           -2.74893229554658       -0.94000791758731        4.49464095482887
C           -1.85980169423605        1.23704582785350        4.36029550877738
C           -0.56032677240070        2.02261309025094        4.39121228403888
C            1.10663204701494        4.61866874752732        2.94543207520671
C            0.58415811982590        4.50298734475958        1.50991160104437
C            1.60586691255596        5.87977981824004       -0.27709043566346
C            2.84992779337852        5.90753412848565       -1.18756083359051
C            3.05747174116091        7.26538437995649       -1.86440085510846
C            4.17691280312035        7.19369053329166       -2.89987664853173
C            3.39905530101143        8.28876156320131       -0.78150189541463
C            3.31678921145343        3.63145390584942       -1.72849514245888
C            3.00798494991178        2.29677138240235       -2.43198171053855
C            3.21140967150765        1.16189943588552       -1.42382117459468
C            2.94640690143823       -0.18437144283201       -2.08555251414044
C            4.55102135225198       -1.44181118099612       -3.37774101754920
C            5.19773283083752       -1.66350093775801       -4.64393209778855
C            5.72565811084819       -2.13321457555577       -5.62024036585283
C            6.30144001521393       -2.75328001911798       -6.81263100427302
C            6.97043537764882       -5.04632491223046       -7.46237827202548
C            4.82946667938553       -4.68169866941666       -6.46797755154308
C            5.55367211942366       -2.24797637859229       -8.06388007721390
C            7.77307028674052       -2.32334480835332       -6.89075937311633
C            3.62008100048214        0.67505012255908       -4.25939445373174
C            3.89702889519005        2.05955790509050       -3.65698667138158
C            1.71519010392402        4.87596272285650       -3.14979219131489
C            0.04034368373557        3.14741870013552        1.04586959197939
C           -0.76513526575106        3.31798097032493       -0.25343090633583
C           -1.42528973485762        1.99361490221226       -0.65399804662463
C           -3.48240407952529        2.72632777482205        0.29507053289056
C           -2.81011497472980        4.03288133086892        0.70941198913663
C            0.82808190042680        4.33070010925645        5.34604313710297
C            1.12558686695794        2.97314009895076        5.97638518927154
C           -0.11135757695859        2.08486892695554        5.86583958172088
C           -2.97085862842351       -1.81500170423285        1.25313924162935
C           -3.95537614451412       -2.22125652932214        0.31955697539189
C           -4.42678541501304       -1.34801485395880       -0.65453693517546
C           -3.93349884832750       -0.06198295884882       -0.66444676734830
C           -2.95986420239281        0.35473303775238        0.25602114763175
C           -2.45552847487112       -0.52286580673314        1.19216856127230
F            1.66514359610712        2.25494539099995       -2.82721097758946
H           -6.01497777598067       -4.60218652938776        5.15434947693353
H           -7.59152915059400       -4.12736246051338        4.51673606386855
H           -7.13123347947754       -5.84014130174844        4.56166548730159
H           -5.82626166044401       -3.69519500191343        2.81678026605888
H           -7.53350154182716       -3.18665523309854        1.32242837564308
H           -8.65271388420640       -4.50768423932285        0.88925726416171
H           -8.66266290515709       -3.84340391355342        2.53769346023359
H           -4.34668274271995       -8.72120448600785        3.73992975218049
H           -2.10699366946491       -8.17251135710370        2.75733789301996
H           -1.78100929176590       -5.89277651462180        1.79221432467407
H           -5.53132625769531       -5.16100111186577        0.31786740624824
H           -5.84199392680514       -3.78090331064582       -0.74619054038930
H           -3.37631050700507       -5.59027767746211       -0.86508976524045
H           -4.72349515753907       -5.60973105560122       -1.99859665618237
H           -3.66300747046112       -4.20458811190082       -1.90968581094086
H           -1.40562153846659       -3.94859360805965        3.41506794658276
H           -0.89847323205821       -2.31757481857725        2.95555910534544
H           -0.84439501503356       -3.52721890259582        5.76094165369841
H           -0.28970534426280       -1.91098283032262        5.31676346324125
H           -1.48514210504849       -2.11399601779314        6.60010348669414
H           -4.30707949942373       -3.09161601819731        4.39444202798694
H           -3.20708694948486       -4.28586104299089        5.08209555628771
H           -3.77646085674994       -2.93819560076267        6.07009184029447
H           -3.28288708259253       -0.64104430308580        5.40264249699020
H           -3.42473356441062       -0.80701399708858        3.64500308821744
H            0.19732450765055        1.50164891855714        3.79804119976996
H           -1.56694355703352        3.79070541026603        4.26289467527561
H           -0.20315580943593        5.25955050911654        1.38647602858192
H            2.53998409120056        4.39900266762844        0.75006985063518
H            3.73311994350214        5.68982078250990       -0.57866794886091
H            2.12048592063325        7.58283999260848       -2.33189933591184
H            5.09708288906454        6.85826423515362       -2.42728427305200
H            3.93505643572918        6.50534339215862       -3.70409199331656
H            4.34622663817660        8.17741380812904       -3.32817522657580
H            2.57626028387462        8.38454985772963       -0.07772536124834
H            4.28787678826636        7.98678071592732       -0.23309392152043
H            3.58126376090571        9.25974711738997       -1.23083420165851
H            4.23181026970847        1.21902461446391       -1.04739877727939
H            2.52767432669591        1.29795113719207       -0.58530318663593
H            1.89314499797066       -0.24356596666594       -2.38314180578900
H            3.17265814264322       -1.00093913295531       -1.39795256498062
H            8.03132070295901       -4.85814090667476       -7.32359493330284
H            6.77368488948338       -6.08031810172233       -7.18452720672768
H            6.71572742133474       -4.92657936571618       -8.52612996501973
H            4.23398106478286       -3.97009895585204       -5.89975669749820
H            4.35020809936739       -4.85182114085320       -7.44547310119771
H            4.84216067520996       -5.62551338048737       -5.91924860926181
H            5.67327202561966       -1.17200778656399       -8.15438905966304
H            5.96369609110492       -2.72034350357641       -8.95353043906164
H            4.49267997006624       -2.47535330030144       -7.99853685038375
H            7.83542052916657       -1.23911712645628       -6.84468409628778
H            8.32712425906307       -2.74119042419228       -6.05463125242224
H            8.21822251890595       -2.65528023419057       -7.82432759572326
H            4.31016683827572        0.47756568616528       -5.08062317642238
H            2.59201497032859        0.65267200101912       -4.63899616958866
H            3.71423980894386        2.82103188946093       -4.41445664003542
H            4.93401205865370        2.13307619515854       -3.32938337373834
H            1.64562892888159        5.91399860523695       -3.45494345601511
H            1.99784850812809        4.27451404820255       -4.00886230948278
H            0.72838935928496        4.56057892811545       -2.80420503778222
H            0.87216908158726        2.46894125421314        0.85516814432729
H           -0.61234871699701        2.71601009972008        1.79787538206938
H           -0.10160803366336        3.65245554229667       -1.05727054012357
H           -0.68731305829007        1.19093372102147       -0.64541018679904
H           -1.82520110081976        2.09138306589376       -1.68002756816029
H           -3.94136534448287        2.85929408408918       -0.69918875041716
H           -4.25679602318224        2.46452562212147        1.01544260577850
H           -2.45664222676878        3.94566578730946        1.74420115218399
H           -3.50018903330042        4.87410241768218        0.62829206947922
H            1.71324580144033        4.96369785261362        5.31917552227282
H            0.03232871298456        4.84139509814073        5.89682620346810
H            1.40175551549022        3.10814785295027        7.02106448124052
H            1.96339281387322        2.51098157292144        5.45248885581988
H           -0.92468616301519        2.50258558799308        6.46508709522442
H            0.10165711671503        1.07839515399236        6.22400429609153
H           -5.16825838549817       -1.65413825065477       -1.37663340635529
H           -4.30154205913659        0.64106857012260       -1.39722922088521
H           -1.68823690335465       -0.18587109715125        1.87023592319685
