151
 energy: -221.323043788616 gnorm: 0.004678638906 xtb: 6.7.1 (edcfbbe)
C           -8.81859980770254       -4.02548141476298        3.10105700837671
N           -7.76007760885529       -5.24810047353346        5.35739854737600
O           -7.21045566519284       -5.73445223128449        2.37901702558539
C           -7.36981755688317       -4.51010889781514        3.09135472262555
N           -4.16368942370751       -4.70939957678691        2.81228952018809
O           -2.93544959938308        0.73136898744971        4.21230747288804
C           -7.33424728862904       -5.62404908101562        0.97876710420490
N           -0.07647619759717        2.65925231239503        3.36343455262665
O            2.14714263370804       -0.79485670912608       -6.19488345424044
C           -6.87026651591931       -4.77058365139901        4.50053856260958
N            1.17568470382638        2.99718362402002        3.88449506806884
O            4.83284925100497        3.03790178111630       -2.38121964799442
C           -7.39606001186743       -5.48968894358216        6.60418466261119
N            2.95301554032400        3.06132135583977        0.79935532663275
O            1.53429602976538        4.76026924014591        0.37628454668455
C           -6.11511143054802       -5.25431867025468        7.07884270765590
N            3.28077227777089        4.64124092552465       -2.06858104982968
O            1.19544065717507        0.79244389452611       -0.42679630421257
C           -5.17635867837849       -4.76253555002275        6.18998604011848
N            2.91963433469599        1.33734563168259       -6.19269036829185
O            3.37728714220652        3.27756518496715        3.51746760782135
C           -5.53854723222529       -4.51861739756038        4.86611127147546
N            6.81510660683419       -0.29912956177622       -9.41811320596576
O           -2.70876559815130        2.48789860195234        2.84251337836189
C           -4.55250141308761       -3.98828688588151        3.92010330466846
N           -0.57645305159981       -1.17757682137033        0.53276692649140
C           -4.23895522551941       -6.14633626939421        2.71163699412655
C           -3.05631260044441       -6.79529264488036        3.43060270863472
C           -3.92920731428064       -2.76035989110217        3.94261371202142
C           -4.09297395013502       -1.72536876764124        5.01017386635008
C           -4.97524149241645       -0.50514229693354        4.65650060457300
C           -5.29025915297565        0.25915754254576        5.94543352809954
C           -6.27566290197019       -0.95194190335879        3.98975908387863
C           -4.24227480492133        0.43489656819917        3.69343183411530
C           -2.26820693514622        1.73443989071644        3.68367472893210
C           -0.86885971912377        1.84506397001321        4.27047233863184
C            2.27474542332158        2.91980159293573        3.11799884938970
C            2.07497385312815        2.35672185216875        1.70534698830040
C            2.62587665627093        4.22032865076271        0.22385041970556
C            3.72363062687332        4.79091454243214       -0.68285311458903
C            4.09768847934759        6.23203865406693       -0.29943873303900
C            5.35467003091536        6.65860074425828       -1.05323361573527
C            4.32342721228743        6.30788809969312        1.21048324413210
C            3.89542254381634        3.71286171576452       -2.81103521410493
C            3.37578735328927        3.38181227351612       -4.22081554043834
C            2.27077503061834        2.32938616227837       -4.06232298823540
C            1.79921778440581        1.83297441464440       -5.42835603578670
C            3.01218082661353        0.03182313716209       -6.49775121338892
C            4.16691669676766       -0.36009224070369       -7.26116951926938
C            5.06050255911055       -0.82832255841653       -7.91876212737321
C            6.14951507099796       -1.39822581096581       -8.70767465044346
C            5.93856154563237        0.43949488091731      -10.30615399005249
C            8.04221945421763       -0.65637760425088      -10.09895387675541
C            7.11596343686700       -2.05893341735721       -7.70977421163942
C            5.53547903874200       -2.47802395881295       -9.62369563095889
C            3.95017242107254        2.31979165937397       -6.43292039143793
C            4.50385954291176        2.84700911558858       -5.10653984333829
C            2.15421930923481        5.45297021878896       -2.48319538045938
C            2.38949447528177        0.85646331061787        1.67829718818333
C            1.46238282770021        0.05672537090599        0.75828860765093
C            0.14329494659007       -0.31833559680501        1.44616989420394
C           -0.89315805479157       -0.45793710737540       -0.68457251438225
C            0.40954439364335        0.03202578766667       -1.32349103003781
C            1.21019622638373        3.57413562053745        5.22102143758720
C            0.49163847090225        2.64373984218081        6.19460364926615
C           -0.93532147020812        2.41263286613948        5.70107058596904
C           -3.09633780645960       -2.71489209618067        2.78232487694726
C           -3.28141783788373       -3.94200013592521        2.10040565699584
C           -2.64983856911777       -4.19676394660127        0.88759640021852
C           -1.81535911764929       -3.23279793891821        0.37389779146784
C           -1.55931356508259       -2.03627470371623        1.06791971817486
C           -2.19495074138015       -1.78035835964563        2.26899969709465
F            2.85583805824626        4.50992464158436       -4.86544940259327
H           -9.13537284230740       -3.75376964986517        2.09798886882638
H           -9.45611740979391       -4.81595632425376        3.48466719051922
H           -8.90597462303516       -3.15589136909443        3.74464545284943
H           -6.72643413720894       -3.74762533778480        2.62126911651585
H           -8.37683651772521       -5.49515514608034        0.67256636590407
H           -6.73786246092933       -4.78535988235473        0.59869550617658
H           -6.95223966851192       -6.55787104790658        0.56896910416246
H           -8.17355118310341       -5.88259827885993        7.24495415691054
H           -5.86183806105158       -5.45419640840956        8.10716736537124
H           -4.16025614610678       -4.57596031614050        6.50620002507318
H           -5.18056980341219       -6.48190066678739        3.14923664703238
H           -4.23508692719606       -6.41913549742330        1.65471183884478
H           -3.07588717805867       -6.54054536592129        4.48793432249068
H           -3.10405294124022       -7.87512805021465        3.33131485629945
H           -2.11879643871782       -6.44166299348315        3.00691688348603
H           -4.54498382770039       -2.20692831077169        5.87862266654673
H           -3.10786746399380       -1.35515359465020        5.29962373428518
H           -5.85214938949473       -0.36933413673666        6.63058724337615
H           -4.37093722290942        0.57290714513872        6.43310379171433
H           -5.88468937243211        1.14328452021303        5.72608367766390
H           -6.92503400095357       -0.09920583109667        3.80879301546335
H           -6.06983194545855       -1.43563120357748        3.03823765757826
H           -6.79748987394745       -1.65924118911217        4.62910054570304
H           -4.78993623200746        1.37272823760262        3.56040951248371
H           -4.11834128800636       -0.03259849875304        2.71237875849556
H           -0.42277805247927        0.84453521747040        4.30742238408872
H           -0.60602050368013        3.49302317349509        3.09542537619247
H            1.04991733928542        2.55019457201438        1.38282103195835
H            3.89631692860965        2.71283289493075        0.71343519016188
H            4.61895787095528        4.16896415946206       -0.59059003834407
H            3.27347545085216        6.90118911934771       -0.55788199658824
H            5.20731802298196        6.58333624419772       -2.12810926174460
H            5.60875968913586        7.68567871155811       -0.80806302830743
H            6.19137076971615        6.01958261552461       -0.77855090617904
H            4.66355220899529        7.30138992653820        1.48742866458293
H            3.40097726390176        6.09914709408365        1.74872389256656
H            5.06938919150468        5.58289435046755        1.52878582737638
H            2.68492402371499        1.50264128844291       -3.48248858219514
H            1.42831208598248        2.74354784036982       -3.50827540803457
H            1.33145118149466        2.65575441737871       -5.97886709178641
H            1.08305829615356        1.01737766584170       -5.31127299229364
H            6.39560997071471        1.40779217024636      -10.51175026027903
H            5.76936327524864       -0.07031460853602      -11.26611701288443
H            4.97832131688908        0.60422373049718       -9.82162126477530
H            8.47681023241306        0.25831953266075      -10.50052680093016
H            8.75050079563262       -1.08862491177458       -9.39844097743018
H            7.88938317011676       -1.35484653284097      -10.93580978471002
H            7.76647399134962       -2.76341132884613       -8.21738418525149
H            7.71193398815698       -1.29829275049274       -7.21451591132649
H            6.54493473697191       -2.59701500909418       -6.95781988147026
H            6.31136794681560       -2.94071514471731      -10.22830099036123
H            5.06186000527777       -3.24299520877625       -9.01450102133430
H            4.78171740251119       -2.04648676469474      -10.27772773972766
H            4.75078744208901        1.86906822522366       -7.01939766873502
H            3.51173191692035        3.15015692883991       -6.99661505044001
H            5.21124242440299        3.65305939127313       -5.30201491764266
H            5.01962268370604        2.05936702181798       -4.55876122989671
H            1.44883842630445        4.88082681626986       -3.08015778317682
H            1.63268816131822        5.78988502651898       -1.59005502757947
H            2.48994619323673        6.31417969358576       -3.06311051338704
H            3.42043788375915        0.73127586027483        1.34612423204386
H            2.31281593243755        0.44081497496775        2.68289344973777
H            1.96258101647353       -0.88529265348773        0.47681626083281
H           -0.40708644128670        0.60570439356111        1.69106012969452
H            0.35551723996100       -0.87733113686172        2.35773961845915
H           -1.41447379224936       -1.11634786144727       -1.37933026714241
H           -1.53777284160845        0.41348995951112       -0.46772417241708
H            0.19643292674317        0.68964020944353       -2.16716648062711
H            0.99027347586325       -0.83399487950151       -1.67246695674201
H            2.25922085900582        3.71179462326338        5.48341100209323
H            0.71360385112728        4.55143823151797        5.19780662546405
H            0.48397687754130        3.09074147993726        7.18729459584236
H            1.02253276911778        1.69207356310343        6.24536660438186
H           -1.48349730378858        3.35760231772098        5.69169672092094
H           -1.46220728366231        1.70881621061578        6.34324981978121
H           -2.80231038129474       -5.12516455145317        0.35926334587208
H           -1.30937242456426       -3.40101650833132       -0.56420518844158
H           -1.98154638875804       -0.87403215465879        2.80927060925907
