151
 energy: -221.322700895071 gnorm: 0.009142849694 xtb: 6.7.1 (edcfbbe)
C           -8.29471653298955       -4.53671063736746        2.45705018006333
N           -7.45189504594618       -5.31407250084191        5.03154100872309
O           -6.72837991685504       -6.44504653976640        2.45146252787740
C           -6.87858829271000       -5.04967743521115        2.71865783444011
N           -3.55425944679561       -4.54147709937230        2.82040227633401
O           -3.52731309856675        1.17057847350152        3.47092219425621
C           -6.96540266034076       -6.83508281717513        1.11654927729450
N           -0.86351602334647        3.41915390742406        2.73872736154650
O            4.90626059925254       -2.77542662659607       -5.31182929750938
C           -6.52209247743631       -4.89531123262904        4.18436053845320
N            0.12053832109679        4.09536196300213        3.47285329835680
O            5.13811804177672        1.63476546945523       -0.60394930405087
C           -7.22809445664676       -5.25125478602471        6.33176956155259
N            3.01116378709532        3.32768440681368        1.40908215012545
O            2.39853140868872        5.24946897588946        0.40777150914546
C           -6.04402032852770       -4.77283401526521        6.87146958262438
N            4.06289767509854        3.43957341544319       -1.42307057679786
O            1.48892744166574        1.31324367334465       -0.24305637369451
C           -5.07297578453416       -4.32399686847514        5.99712292224689
N            4.31914633761154       -0.65726001309694       -4.73932397242377
O            2.31096187692982        4.53480251966503        3.76141033406693
C           -5.29702923897443       -4.37100474184866        4.61848004747867
N            4.31980738766472        0.23830075455621       -9.89865936244731
O           -3.16886525613426        2.42357008333714        1.64687301064776
C           -4.26571739605068       -3.80579413270261        3.74280841279013
N           -0.16552799183724       -0.55409550139081        1.02910775351916
C           -3.58691040130330       -5.97442910028376        2.65584784579097
C           -2.44680431936977       -6.65255115310871        3.41816591344336
C           -3.81765390182777       -2.50184458398542        3.76344950180285
C           -4.33872695784053       -1.37494092887543        4.59548178934261
C           -5.31545940178824       -0.40908364832270        3.88054567521987
C           -5.92646530730114        0.52502778967172        4.92913043506093
C           -6.42219537575252       -1.19354363821230        3.17942303598687
C           -4.58699561336736        0.44333730653874        2.83338841909471
C           -2.89598222401338        2.09878570837554        2.78020872949819
C           -1.80132249247763        2.74091236201844        3.61921703756729
C            1.41692861902283        3.96079154136098        3.15204073810867
C            1.69019490930164        3.07198429672050        1.93620779000157
C            3.22280236772569        4.35934952161474        0.58366838578255
C            4.49305847535540        4.22636654555813       -0.25848005040839
C            5.12104840421208        5.57808654096792       -0.61784676453441
C            6.20674505830920        5.41458878674713       -1.67642136264137
C            5.68884796840418        6.20141934787203        0.65751743500199
C            4.40359999883979        2.14365125000981       -1.45215456984731
C            3.94433621283991        1.27561783507101       -2.63849011967279
C            4.13601775771080       -0.20937143193335       -2.31894262808002
C            3.69308084978947       -1.06736904108819       -3.49951207162166
C            4.80582684815842       -1.57922292662735       -5.59564712077913
C            5.16652757216170       -1.07046513179608       -6.89265226171856
C            5.46643702967966       -0.72022445147503       -8.00706894201623
C            5.62817378682302       -0.16343150485707       -9.34965854647387
C            3.41657579689128       -0.86849353437123      -10.15647679376107
C            3.63090092029072        1.26367381355269       -9.13785107472719
C            6.55845797072707        1.05786741262317       -9.26243851111913
C            6.28388043700666       -1.21109698646944      -10.26066436604184
C            4.18179654528889        0.74413271680119       -5.05972709433585
C            4.72524931054437        1.60202585931093       -3.91644535611388
C            3.02978426598834        4.03104069105042       -2.25264606039905
C            1.50406587220754        1.58057463852487        2.21424301831892
C            1.87862358729297        0.72026039721634        0.98862179773720
C            1.27269347578822       -0.68555486362579        1.12094628786798
C           -0.53103715646884       -0.05402981690885       -0.28313633939036
C            0.08458853793120        1.33188615272101       -0.44491342948481
C           -0.34201727599864        5.05399196639373        4.46435456885359
C           -1.31149383826558        4.37966880623115        5.43321865497690
C           -2.43163918737772        3.69541350748274        4.65186610975257
C           -2.75458279681012       -2.43290132733769        2.81737891517314
C           -2.61690646725410       -3.72510468625776        2.25178217835712
C           -1.65293486405368       -3.98682388983818        1.28332721194621
C           -0.83305151420926       -2.95451697611639        0.88094689213753
C           -0.94782807430891       -1.67528886580354        1.44535395043915
C           -1.88937608911121       -1.41821670580603        2.41782412995914
F            2.58422461464068        1.47856089015103       -2.88802339343896
H           -8.52767415574116       -4.57203413521692        1.39617942803670
H           -9.00063952825560       -5.14888857264778        3.00966988482326
H           -8.36977482552995       -3.50835674555316        2.79704202663944
H           -6.16214357615364       -4.48992800173329        2.09496653836621
H           -6.63402170533684       -7.86930709005754        1.05160935321274
H           -8.02630909111733       -6.77956409515096        0.86114942765172
H           -6.38854267730960       -6.21762336193199        0.41858119248588
H           -8.03733277772779       -5.59677644477884        6.96105290399023
H           -5.89039081475181       -4.75110310456277        7.93689095884899
H           -4.13041484735558       -3.94433026138385        6.36392331725101
H           -4.54782996410558       -6.34919780024038        3.01319525527577
H           -3.50357366529568       -6.19905352456776        1.58719166180446
H           -2.52953038751702       -6.44464054013477        4.48420632576469
H           -2.49462930863750       -7.72685826384519        3.26559091456244
H           -1.48188841996109       -6.28968898742396        3.06762602099636
H           -4.86637757583250       -1.78682185057958        5.45733851233170
H           -3.49452965728100       -0.78781555649736        4.95878883667749
H           -6.58831573878712        1.24668668472256        4.45595886865433
H           -6.50108278735164       -0.04387618936340        5.65538036085405
H           -5.14226110852355        1.06573581668690        5.45160107082679
H           -7.13744137273286       -0.51769959850859        2.71745858692115
H           -6.00830705939170       -1.83819501937010        2.40876549200494
H           -6.94615194883046       -1.81496708691457        3.90132792775459
H           -5.27275755213759        1.15767984017036        2.36579313169609
H           -4.15609927698957       -0.18154619726661        2.04508360499807
H           -1.26195008636719        1.95051821715120        4.14976672219058
H           -1.37397650910068        4.06729917536281        2.13581778931592
H            0.98752387896817        3.39990743446222        1.16143352396011
H            3.74539711487609        2.66129768386594        1.59247019906990
H            5.23479006111724        3.61427991435015        0.26294865390829
H            4.33858199646695        6.24552517019307       -0.99361424948803
H            6.69035759855341        6.37206435396235       -1.85806756161980
H            6.96316673389428        4.70687053814562       -1.33554329508613
H            5.78665719127649        5.05275018865503       -2.61147250534736
H            6.09066871243002        7.18882672295362        0.44109609962026
H            4.90905285377400        6.30317315367259        1.41066869974439
H            6.48566650548628        5.58287822976040        1.06680163076918
H            5.18448158992214       -0.37292325965584       -2.07639649373169
H            3.53847489444529       -0.46368184772672       -1.44254344870437
H            2.60451176341658       -0.97891314452693       -3.61382206316810
H            3.94624443063952       -2.11646747517296       -3.33245583094660
H            3.85144147930734       -1.55296914115951      -10.87777947268727
H            3.15213099084298       -1.42852667884370       -9.24601165820011
H            2.50139879210585       -0.46440299292906      -10.58692314527446
H            3.30793731730632        0.91735647136053       -8.14399410924952
H            4.26023793080893        2.14126118943011       -9.02120272443493
H            2.74744717698584        1.56025455412213       -9.70098941532432
H            6.54921854323118        1.58108847419829      -10.21310979924505
H            6.25514584642264        1.73837043845349       -8.47260905546011
H            7.57039653276909        0.72675033595756       -9.04586203590657
H            5.80228973878226       -2.18031251074905      -10.16057452168823
H            6.22253090970685       -0.87735126483560      -11.29327226900084
H            7.32913010559678       -1.32965195304987       -9.98510080514206
H            4.72681854760786        0.95490716055636       -5.97887821111454
H            3.12079860694916        0.97826306464580       -5.20782656453923
H            4.63127614755822        2.65277130831356       -4.18129500502908
H            5.77674881290707        1.37877505205172       -3.73701597115833
H            2.98177333764074        5.09178846731924       -2.04109679185346
H            3.23763571576613        3.88655209150400       -3.30660454116787
H            2.05612204485966        3.59834884770925       -2.02044396687406
H            2.12848926181543        1.27957453302783        3.05568732538340
H            0.45954568754145        1.39723528555702        2.45754928934868
H            2.96870341069805        0.63840297854326        0.90105777625563
H            1.53502660433181       -1.11561411927518        2.08731819180108
H            1.68949140585839       -1.32245078875223        0.32082058776266
H           -0.17188574218577       -0.71747804389130       -1.09071789136240
H           -1.61758411106726        0.02491436738801       -0.34445103867640
H           -0.40181533247740        2.01577526053685        0.26090281319626
H           -0.05173216573973        1.70108923111352       -1.46321037286722
H            0.54045328930190        5.43843511142191        4.97676955619196
H           -0.83995822719965        5.88131033502751        3.94434664140576
H           -1.72388498406799        5.13070779797770        6.10551844068313
H           -0.77160975293714        3.64055664041771        6.02813178223116
H           -3.03697543386849        4.44062480902086        4.12777436836672
H           -3.07987135780297        3.13076702900897        5.32091396773447
H           -1.54916306002193       -4.96749193866967        0.84231808223949
H           -0.09159549594451       -3.13129481880733        0.11364150490637
H           -1.92878434354813       -0.43354073903535        2.84926708048200
