151
 energy: -221.321537081539 gnorm: 0.003955257479 xtb: 6.7.1 (edcfbbe)
C           -8.58797393786999       -4.42256375684063        5.88762491481345
N           -6.52446510235997       -6.31009120143089        6.11718205494742
O           -8.13458016262804       -5.50131591212764        3.72179164486383
C           -7.60678425947129       -4.65055168027420        4.73845305991827
N           -5.02565353647797       -4.11626620220754        2.44580683677799
O           -2.88831637908987        0.59393552977662        5.07661583058250
C           -9.14331420709933       -4.91551896222907        2.92828703845551
N           -0.42480334914869        2.63078763174582        3.44482185842938
O            3.74649977384981       -1.47673969023891       -7.29241845185068
C           -6.34905297378357       -5.33258371736455        5.23826841344986
N            0.97040901562719        2.73075005283956        3.49073588499436
O            4.62477842263374        2.32209896158555       -2.81737883486890
C           -5.47262376538208       -6.95468460851105        6.58846487722997
N            1.95505581713404        2.86960537532913       -0.00732094287871
O            1.62266563838146        5.09520166965310        0.04255987305386
C           -4.16990067039535       -6.64828604890481        6.22639529010255
N            2.91046424422431        3.77770639233773       -2.70919499794922
O           -1.36461622226959        2.71291915846054       -0.56411726162010
C           -3.97864117428625       -5.63085102233017        5.31032943986093
N            3.87640505908073        0.77172246945459       -7.03795662073116
O            2.94740233017864        2.65787230322598        2.42793701946033
C           -5.08078530563714       -4.95685342555323        4.78305072380508
N            9.07265990171497       -1.35831951961755       -7.84776996155660
O           -3.12556315707934        2.46259119207122        3.86276153257279
C           -4.81800098892355       -3.90551171476483        3.78936132358432
N           -2.48762607579162        0.37919078226646        0.49552804051101
C           -5.54060601186567       -5.31281617106870        1.82874840205896
C           -4.42352297692505       -6.30567542904755        1.50016807612780
C           -4.18767481154676       -2.69824756189886        3.99454258861837
C           -3.78840284489323       -2.12129259552005        5.31549238927376
C           -4.63373385284251       -0.92804086842737        5.82596945694333
C           -4.31942264637585       -0.70741920570020        7.30810079127294
C           -6.12558691092207       -1.20927544770935        5.64970386352984
C           -4.30623633931554        0.36169220629189        5.06153590393307
C           -2.42864408874440        1.63667424448867        4.40870188213960
C           -0.90822368829420        1.67286798142507        4.43594899361202
C            1.72128098716425        2.63416530436994        2.38159697208563
C            0.98653489173709        2.60460079570429        1.03583248260536
C            2.24325822665419        4.12409922661878       -0.37149560153864
C            3.37242678873240        4.23809991344805       -1.40228161095537
C            3.91775276086617        5.67839965748427       -1.44788156128131
C            4.84723769283053        5.88610903894427       -2.63965110932897
C            4.66311863224281        5.95373228545033       -0.14291700043933
C            3.69023749226538        2.90969188924733       -3.36594449370324
C            3.44682874467772        2.59035379460618       -4.85129025178173
C            2.64992540762506        1.28939665575828       -4.99043803057097
C            2.55550975923778        0.87571335087361       -6.46109348771484
C            4.38814407226679       -0.42677864364075       -7.36974303801220
C            5.74131632314106       -0.42564976122751       -7.86602059323241
C            6.85485959744348       -0.62233270541326       -8.28135215584477
C            8.18805425489076       -0.76905018318220       -8.86205743119848
C            9.07799980179181       -0.65466416341728       -6.58182482488605
C           10.42766151586270       -1.61376001311879       -8.29034488475489
C            8.02635373034655       -1.73973342762005      -10.04525549487169
C            8.63997598442908        0.61281964331118       -9.38005091529713
C            4.62378742608680        2.00527015423122       -7.00275706201153
C            4.80392925933759        2.46881262996396       -5.55620201675996
C            1.68813327692534        4.37371990760683       -3.21069453364760
C            0.21564025125357        1.32426938575842        0.73288227690648
C           -0.64355560725769        1.49105729894192       -0.53675261156902
C           -1.62686357025686        0.31794577890113       -0.66343934279389
C           -3.28890666609167        1.58924620605332        0.46484391365343
C           -2.35742783571182        2.80094193998663        0.44795980459254
C            1.56587013310555        3.05090653554522        4.78178468880951
C            1.10816985373396        2.05495525894437        5.84248358165263
C           -0.41788513242674        2.00090018116459        5.85791029903522
C           -3.95693834104334       -2.14639826710616        2.70011541627562
C           -4.48548914666289       -3.06586342979597        1.75823983931487
C           -4.36672616402098       -2.84959899181620        0.39000979235278
C           -3.72185877960380       -1.70963273296005       -0.03986838869939
C           -3.18352712128883       -0.79541883772325        0.87650029434131
C           -3.28827194323096       -1.01880860379759        2.23495867248436
F            2.74971231397891        3.61810472489616       -5.49339210318555
H           -8.89035487231872       -5.38301199863983        6.29113027647486
H           -8.10078173419766       -3.84879315865979        6.66928270563978
H           -9.46201709680949       -3.87622403139002        5.54625954133772
H           -7.33326083297746       -3.68585437291324        4.27997076115940
H           -8.79972003376677       -3.96563735978465        2.50305113963066
H           -9.34133457238254       -5.62540844946016        2.12859933533460
H          -10.06069246105388       -4.74650848866592        3.49725391509942
H           -5.69294900369049       -7.74648757889880        7.29146390466720
H           -3.33688207910781       -7.19052866484040        6.64324085187440
H           -2.98611404792218       -5.35469656426882        4.98570860648447
H           -6.27215633162236       -5.77217717400920        2.49647321424191
H           -6.05398641983945       -5.01381068960692        0.91177873206535
H           -4.13001873399304       -6.86505598620008        2.38580294108694
H           -4.75935228388194       -7.00834048913520        0.74254114077916
H           -3.55304240262312       -5.77465047749021        1.11987227540766
H           -3.85759199953601       -2.91428911483050        6.06320982075361
H           -2.74799955034753       -1.79452747431089        5.26165476635959
H           -4.88321151058429        0.13947872987333        7.69314352479133
H           -4.58527282631580       -1.58744449277213        7.88946368591552
H           -3.25901730103614       -0.50848745980518        7.44301294840765
H           -6.71754503545816       -0.37085280991860        6.00626853198769
H           -6.35941900536792       -1.37610971403934        4.60174970523039
H           -6.40283753202437       -2.09600511371247        6.21219675786670
H           -4.80515953648922        1.22073628971256        5.52062851081281
H           -4.63580116038852        0.29475626940993        4.02075116025791
H           -0.53583052276218        0.68237713532039        4.15007027303363
H           -0.85875477452331        3.54001154480993        3.61510635629911
H            0.29868301122831        3.45798872611523        1.02925026504419
H            2.57464736240262        2.11737804878134       -0.26967091683416
H            4.18395374077736        3.56277441954104       -1.10864616745057
H            3.06645522245276        6.36265140292755       -1.51681206464737
H            5.29277992816446        6.87545400249278       -2.58729393106211
H            5.64418599640770        5.14516934496685       -2.62709257817413
H            4.31274206599841        5.80291284955627       -3.58250848495946
H            4.02158939572005        5.75292305320310        0.71187918506487
H            5.54339963397551        5.31846635943539       -0.07003460773080
H            4.97691100730487        6.99243637558324       -0.09988603462956
H            3.16972447387198        0.52036120920348       -4.41778850405180
H            1.64766450719425        1.41646905680682       -4.58132729315957
H            1.98731481673002        1.62622680323917       -7.01884566566868
H            2.06801449737953       -0.09618946628695       -6.55295882447857
H            9.58581605113824        0.32095859187135       -6.62642876609886
H            8.05503790699954       -0.50480138999622       -6.24203072041128
H            9.59821100283427       -1.27260490174515       -5.85090226374909
H           11.01762670058720       -0.69622421901973       -8.43571696834273
H           10.91992861474100       -2.21257781053408       -7.52458806586048
H           10.42252842408588       -2.18553262649243       -9.21314305149411
H            7.85327418322272       -2.74456672995494       -9.67055938841411
H            7.17256981584769       -1.43878797739530      -10.64710237604623
H            8.90952397458398       -1.73533384046274      -10.67725272753896
H            9.59189795805615        0.52282924111668       -9.89647013830729
H            7.90124602072915        1.00123339245463      -10.07562173378485
H            8.74487389027465        1.31653877132128       -8.55781389474936
H            5.59577856006352        1.85512145303592       -7.47281342572980
H            4.06532495112423        2.76421614657576       -7.56005732907992
H            5.30036552406441        3.43959639655645       -5.53798661183932
H            5.41078052176786        1.75847167033158       -4.99499398581162
H            1.89038226303711        5.23632684255526       -3.84762787929827
H            1.10976636946464        3.64703622930518       -3.77536522158550
H            1.09156453753876        4.70013159248113       -2.36229096915808
H            0.90802639958620        0.49680130655918        0.58237573033655
H           -0.44264715057150        1.08946650657212        1.56662990512552
H            0.00028641196485        1.54664386417620       -1.42043741202097
H           -1.09220297767773       -0.63131541982270       -0.66868951886642
H           -2.18128979431107        0.43048292446781       -1.61106960491120
H           -3.94622466702990        1.60631277498778       -0.42250313509438
H           -3.90515282847466        1.63977568608447        1.36327621565030
H           -1.89178562569974        2.89951474359458        1.43388514682571
H           -2.91707076924458        3.70927615538240        0.22132744850628
H            2.64634904816876        3.03553760388863        4.64962389550854
H            1.25285802021987        4.06381868706144        5.05922282224320
H            1.48814569754890        2.36745393645601        6.81427653065592
H            1.51038083884693        1.06716976565766        5.61427302832913
H           -0.82361036669037        2.96850388771984        6.16301001918045
H           -0.77352420239006        1.24077309460160        6.55159821115746
H           -4.75616102017468       -3.55603389355147       -0.32684019507278
H           -3.61750862483170       -1.52367082241727       -1.09815706880702
H           -2.80718129243241       -0.32435513090782        2.90091331472456
