151
 energy: -221.320079295754 gnorm: 0.006787328234 xtb: 6.7.1 (edcfbbe)
C           -9.47239165196766       -3.75635839587141        5.94517672666449
N           -7.55576913641218       -5.02479871804510        7.55426065246737
O           -8.35457791895916       -5.55104600910016        4.68856499065723
C           -8.17737992151421       -4.29130909578793        5.33570066156230
N           -5.07305615370481       -4.42843398603077        3.80869925800827
O           -3.94609776128815        1.16525815461642        4.48997178486082
C           -8.99902065016412       -5.47969179161098        3.43655102701507
N           -1.23046616328708        2.82932276610471        2.84850119901016
O            6.17111635615649       -1.71379295682886       -8.09677372669251
C           -7.12976423453273       -4.51396109727163        6.40777645202883
N            0.09934283126024        3.12133090338165        3.17272784255078
O            4.64899922830474        0.52193790691046       -2.45380858487024
C           -6.68843721752454       -5.24824528280769        8.52519337683580
N            2.02438671014038        1.96119388779595        0.30307723669517
O            1.67648545348096        3.87614224939935       -0.82952654853386
C           -5.33709099326427       -4.95614096971295        8.41760883045298
N            3.68385814031196        2.55368860237772       -2.62681420198505
O           -1.05208958244538        1.11508511771334       -0.90361147224197
C           -4.88432755957496       -4.42233290317285        7.22513701046916
N            5.48129858594201        0.17223956582574       -7.04570620708003
O            2.29169173454422        2.89915899390523        2.75245148554606
C           -5.78368168350419       -4.20373457325036        6.18175636219990
N            8.98501491144713        0.88835959290537      -11.42945296116949
O           -3.96904078859615        2.56331038749719        2.73471983380205
C           -5.26159300863293       -3.64711811276109        4.92628598588710
N           -2.31120329060709       -0.77201170540409        0.72956819909035
C           -5.31597038134475       -5.84606347725270        3.71716176109365
C           -4.06834537232437       -6.65036831068990        4.07849312111567
C           -4.77102609791614       -2.37879005073286        4.71628714494756
C           -4.76292163197013       -1.26069552558087        5.70930258270446
C           -5.76326868534669       -0.10505982559054        5.46223926810743
C           -5.83110038966733        0.75060891527012        6.73074481324815
C           -7.15090747540371       -0.65453031718386        5.13604679762692
C           -5.31418021260487        0.78382535054319        4.29405188909901
C           -3.38667086354866        2.00073912389209        3.63538756125697
C           -1.91178404533983        2.17545554966187        3.96254167750083
C            1.12767868215435        2.70042582107654        2.41873412674694
C            0.80012116395771        2.04012232413234        1.07410385934610
C            2.39299568538365        2.92126510966244       -0.55353898121744
C            3.78128663836789        2.72337975721391       -1.17720912347922
C            4.69170780528320        3.90967183985942       -0.79588492578284
C            6.09743326532362        3.71625027802717       -1.36117260626232
C            4.75087715287992        4.04729271298570        0.72397897628280
C            4.16700258435868        1.41899135366080       -3.15066449741165
C            4.21851784392701        1.22210150744212       -4.67924636346039
C            4.17001033248488       -0.26925142941747       -5.01947987250118
C            4.28725907662982       -0.46025272468320       -6.52865412455758
C            6.31003184713079       -0.51327539604401       -7.85271896330462
C            7.35370813874297        0.24011382759456       -8.49876565497650
C            8.21447066444526        0.68088296514820       -9.21831611548050
C            9.25959878717155        1.28701705361205      -10.04202373430013
C            7.68562703789248        1.30601665317321      -11.91566838919104
C           10.01327750586540        1.21499261356577      -12.39462958157190
C            9.25730828204029        2.81129430333526       -9.80293154070354
C           10.59497973215820        0.69227082902000       -9.56693799616271
C            5.60065320963746        1.58059604430361       -6.75286253110599
C            5.51052538482518        1.82750454452066       -5.24284631475822
C            3.08980364557430        3.63782151846614       -3.38659223026289
C            0.16913521680014        0.65336154343511        1.18839468646827
C           -0.30077421868769        0.14640752703506       -0.18793437206657
C           -1.13182283255878       -1.13592279277199       -0.02119094213075
C           -3.12477959168096        0.16492191806762       -0.02165490155508
C           -2.29833784284263        1.42088735507912       -0.29511519527390
C            0.32102939348121        3.89896629909187        4.38445322449147
C           -0.30148527544839        3.18176135921701        5.57776016266624
C           -1.78181886757940        2.94317625445798        5.29239733507726
C           -4.21365347381395       -2.38381080738380        3.40399042190010
C           -4.41154719381024       -3.68351595219475        2.87270497749481
C           -3.92605348839588       -4.02943927845260        1.61578355685250
C           -3.23978098172791       -3.07750305779473        0.89123359021316
C           -3.02519758490920       -1.79193269818412        1.40810484324198
C           -3.50021455747512       -1.45214238705659        2.65902724957931
F            3.12888890379984        1.82090617208474       -5.31897922441826
H           -9.26554031894091       -2.83975349772020        6.48914935004138
H          -10.20511756684066       -3.54642096749186        5.17125161034029
H           -9.87071554817264       -4.49407547129667        6.63440756937852
H           -7.78298153010198       -3.57357531370666        4.59812475808876
H           -8.46992966161753       -4.79525587416610        2.76484483468445
H           -8.97504023749403       -6.48743838460186        3.03069522324624
H          -10.03645602933787       -5.15448144983731        3.53236040567015
H           -7.10407460679672       -5.67508559815881        9.42801547416707
H           -4.66404458400722       -5.14103002124464        9.23893380918396
H           -3.84188924887170       -4.17705023658935        7.08489505288243
H           -6.13814754309233       -6.10451193152768        4.38803882491147
H           -5.62394596793538       -6.07290843712072        2.69387771991300
H           -3.78108792862458       -6.45652885526514        5.11083067816672
H           -4.27026269194018       -7.71283512162531        3.96727257062464
H           -3.23940868963867       -6.37679072409665        3.42765087869126
H           -4.99217461000374       -1.68335459643127        6.68980716386899
H           -3.75960636227208       -0.83248254910174        5.74943038533880
H           -6.17564267709082        0.15556578926274        7.57259840445545
H           -4.84937217000202        1.15359728300994        6.96679380033404
H           -6.52196197668303        1.57872340985301        6.59207949254771
H           -7.87104277336380        0.15706503841209        5.03602847084972
H           -7.12776560596062       -1.21664076933782        4.20267923159644
H           -7.47870011802930       -1.31876393275401        5.93467173392585
H           -5.92728899921869        1.68760155558995        4.23162161662583
H           -5.39302119336766        0.25114765825443        3.34208843910330
H           -1.46845736303155        1.18061892744837        4.08600667077446
H           -1.73436900552845        3.68056434290736        2.59266204531208
H            0.12907747873927        2.71111503994845        0.52547024801948
H            2.70205660851195        1.27978095897169        0.60930935682409
H            4.22699058268223        1.79935036819581       -0.79911784572805
H            4.25323875259609        4.82384918886007       -1.20631676488033
H            6.64730376321277        4.65040675818667       -1.32319806458342
H            6.63467369145241        2.97191052113132       -0.78084167180385
H            6.06339952423754        3.37634622319750       -2.39313176347876
H            3.76424895901378        4.22381717658613        1.14661159166122
H            5.14970066783223        3.14204214373668        1.17671026820904
H            5.39362291324385        4.88083253120076        0.99315780175810
H            4.98245907300757       -0.76723585141991       -4.49299484076589
H            3.22558048159029       -0.68893335849931       -4.67253330894747
H            3.41227431830325       -0.01473390039503       -7.01673129074781
H            4.33503668486364       -1.52027562948483       -6.78221070207930
H            7.45307900223155        0.73026400821027      -12.81207912748778
H            6.92821218455906        1.09237720194946      -11.16452164530722
H            7.64475672639172        2.37504019458141      -12.17585919033044
H           10.96862516160884        0.80576148569007      -12.08196739255879
H            9.73999092909284        0.74745771163966      -13.34132691758050
H           10.12144742468069        2.29666746341356      -12.56987270433052
H            8.28144091711255        3.23580537305447      -10.02416745772629
H            9.49827522791213        3.01663042861136       -8.76403634015195
H           10.00384181655541        3.28619257292778      -10.43435896611713
H           11.43166585425888        1.24957255152094       -9.97882502033177
H           10.64811379870946        0.74210789529878       -8.48244086773187
H           10.66280619931251       -0.34822786628805       -9.87156242012051
H            6.55550772309315        1.94241271052039       -7.13575087080000
H            4.78674348407994        2.12264604781044       -7.24924711646268
H            5.53979633624922        2.90089099673240       -5.05826038103705
H            6.34766695323037        1.35621106803199       -4.72747438654488
H            3.80242523157259        4.05764864900138       -4.09620832508045
H            2.20399429261334        3.29960170119265       -3.92053922926525
H            2.77279529304756        4.40915746620833       -2.69194680643567
H            0.89518144101608       -0.05166771608139        1.59190239275560
H           -0.69160427525273        0.69591479020665        1.85150980086619
H            0.56392975168425       -0.04404107669821       -0.83243764524968
H           -0.56661391077862       -1.88389831853663        0.53512740228619
H           -1.36807871376362       -1.53259881352099       -1.02428764740209
H           -3.45986089105899       -0.27655178924059       -0.97802706762504
H           -4.00229355857322        0.43751913814539        0.56659221797824
H           -2.14520591726264        1.96286888974708        0.64561326443089
H           -2.81115406827496        2.07337172465605       -1.00421098722774
H            1.39668080594420        4.01881244120716        4.49923062848590
H           -0.14120495209208        4.88336987816208        4.25135950551979
H           -0.17814880391800        3.78634669541893        6.47447340600659
H            0.20575427063623        2.22784406770463        5.72916836003913
H           -2.30429027873647        3.89986107868129        5.21160971884422
H           -2.24508915677979        2.36146169248324        6.08854273312301
H           -4.07170686249851       -5.01909704386501        1.21103108679565
H           -2.85127817847056       -3.32784213957290       -0.08503905333844
H           -3.27031290104688       -0.47459052627255        3.04134716259951
