151
 energy: -221.319976016760 gnorm: 0.007104680088 xtb: 6.7.1 (edcfbbe)
C           -7.63563226657361       -4.22315343256479        3.53601825499719
N           -6.00967523280959       -6.47076102139115        4.20528887728532
O           -7.02352010327008       -5.71757505619124        1.68115563289661
C           -6.53320503459222       -4.76016851635310        2.61812283849323
N           -3.28904101021467       -4.27494765052791        1.30156445856519
O           -2.10145313603094        0.37438687810142        4.54044869872802
C           -7.88974106041478       -5.21346177973642        0.68531512600622
N            0.00001552007137        3.16678161196733        3.81633568908242
O            1.39097002549482       -1.40273987263419       -4.31751068466169
C           -5.50658998373537       -5.49731559866014        3.45827331500978
N            1.29236292019897        3.60396409162343        4.12699429485385
O            4.00101070261447        3.26101452192682       -2.27404795465908
C           -5.21087600444794       -7.18533706717614        4.97501623517742
N            2.58647656389651        4.29621789490286        0.77869503770645
O            1.21992606396601        5.99971571463946        0.21655260451487
C           -3.84579580281006       -6.95268551039405        5.07183165142193
N            2.46977512968155        4.90997044730962       -2.34521026028830
O            0.21514934118465        2.95697198059026       -0.59689567508646
C           -3.31174594245374       -5.93976284323054        4.29684438442634
N            1.97161110148728        0.54036055688060       -5.33030884465177
O            3.32860561181989        4.23225537174597        3.40742030227523
C           -4.13915449779578       -5.18978645244336        3.45876599768348
N            5.74471575931773       -2.57590382319218       -7.70790071140253
O           -2.62121276476108        2.45463399166077        3.89028139844703
C           -3.49925024441562       -4.13500915959412        2.65783218557135
N           -0.63187638166826        0.47519238376313        0.39920393492600
C           -3.70916124225012       -5.39333497075294        0.49142074527791
C           -4.55649212535494       -4.96196853197966       -0.70566602887784
C           -2.89983922556863       -2.98374640487802        3.11875649015554
C           -2.75806777619741       -2.52279229169462        4.53616778820739
C           -3.70742514463144       -1.40345964624760        5.02001475765708
C           -3.49579788820622       -1.20983202515325        6.52421709790174
C           -5.15621910281140       -1.80270139931797        4.74912467002839
C           -3.44730308052574       -0.07279271592236        4.30534937200931
C           -1.81605738723166        1.63323101740599        4.26995127160351
C           -0.34944572430859        1.94259548372051        4.53122965047394
C            2.18813877071538        3.86181337216226        3.16081609061766
C            1.68099488653779        3.69258627710145        1.72974347906127
C            2.22406094305319        5.32885305799628        0.00996687590800
C            3.12421399707139        5.56429417975212       -1.20856711731377
C            3.39470753401899        7.05612779921748       -1.44782380973621
C            4.13998481093124        7.27219420097794       -2.76172014957098
C            4.21835369668079        7.58701054962989       -0.27529808429247
C            3.02532186465340        3.79036118024305       -2.81527799009973
C            2.42966206777475        3.08503624748403       -4.04918152851329
C            1.36560443338740        2.09106370471245       -3.57728998439231
C            0.85658568192912        1.24961199365452       -4.74520705398497
C            2.18200295159699       -0.74942048261530       -5.00313758008204
C            3.36729122006365       -1.36654580862398       -5.53817187798419
C            4.27792858764765       -2.06481099480068       -5.90597707499900
C            5.42274443462328       -2.87928491538117       -6.30774456114581
C            6.75754181705224       -3.42209816160395       -8.30492580443995
C            6.04205392415948       -1.18009353856996       -7.95681512823620
C            6.56310164689019       -2.58432351948447       -5.30788208807382
C            4.98693123155872       -4.34847616175880       -6.16794218761448
C            2.96511416983508        1.42155541542671       -5.89439070589544
C            3.53660959059429        2.35499138625061       -4.82026678791805
C            1.21522994988820        5.48257361967389       -2.78934810782518
C            1.48642171947471        2.21128100498033        1.38497595296845
C            1.14846684160832        2.00905790569946       -0.10191778507186
C            0.61867559360175        0.58474583264677       -0.31930930052816
C           -1.60823278116588        1.40662552894198       -0.14473155798738
C           -1.06805393820316        2.82633405319757       -0.00403406952743
C            1.60509618286859        3.78359173241759        5.53687597586974
C            1.33632165072738        2.48202944390236        6.28859443414180
C           -0.10959027783336        2.05093684312621        6.04889593542399
C           -2.30861659664685       -2.36543962190548        1.97956348855059
C           -2.54662655967165       -3.21256678056473        0.86879241904821
C           -2.01359855691328       -2.91454532992023       -0.38193252437314
C           -1.34738264188361       -1.71968352741602       -0.54324185288014
C           -1.17930819755635       -0.83682943694979        0.53247293513205
C           -1.60502306248112       -1.17972569114685        1.79632509119111
F            1.85017653807942        4.00784280073836       -4.92496440596120
H           -8.40495516918293       -3.70911262277042        2.96737302490047
H           -8.07777338603183       -5.05876721972044        4.07054109549325
H           -7.21189537217297       -3.52344347308814        4.24726334815488
H           -6.05181301838813       -3.93006853603351        2.07707779425080
H           -8.69302459440340       -4.59863022184117        1.10365442052692
H           -7.33774173345184       -4.62297181330661       -0.05686674302271
H           -8.32533512393359       -6.08997625152274        0.20577038216735
H           -5.69626868112859       -7.96073215791107        5.54888199915160
H           -3.22394270719104       -7.55149172766235        5.71750520487902
H           -2.25383027520990       -5.72544532388407        4.31889063806493
H           -2.82432888258782       -5.93778085780541        0.14257064666020
H           -4.29577534404234       -6.05884028725327        1.12870787149638
H           -5.15481930616507       -5.80010878299560       -1.04953102321282
H           -5.21916138759735       -4.14986830727653       -0.41770823933151
H           -3.94315970467361       -4.61600933929294       -1.53137520238195
H           -2.91854703477392       -3.38102988893539        5.19168249310946
H           -1.73269840709311       -2.17387887544215        4.67355500091506
H           -2.45153604036193       -0.99462221780307        6.73549914731221
H           -4.10008575112420       -0.38269899918117        6.88967016063818
H           -3.78204908091210       -2.10828411411575        7.06401453869968
H           -5.84339489732547       -1.05387482096180        5.13448948538405
H           -5.32469101882210       -1.91430670167042        3.68113583199399
H           -5.36417878715605       -2.75236621516046        5.23509123254905
H           -4.13287823010548        0.69919425521806        4.66739931333975
H           -3.58931547478683       -0.17731286893644        3.22600033950754
H            0.26086225914506        1.12588284467284        4.13047207040528
H           -0.68863495245432        3.88903846866309        4.03383508884837
H            0.73775457371307        4.23940083302559        1.63499073340519
H            3.44990335486215        3.80757265358301        0.59477798049452
H            4.07736004374963        5.04593836695176       -1.06796923549566
H            2.43970616284676        7.58761553486746       -1.47044604200895
H            3.53078202851517        6.99861713277872       -3.61585155173748
H            4.41939505822773        8.31483212314272       -2.86195124282724
H            5.04385841066212        6.66983097189548       -2.78296751092331
H            5.20292834464421        7.12544413867982       -0.26344822430183
H            4.34088067566015        8.66290666626265       -0.36088091210501
H            3.72415558584491        7.36964678607673        0.66939033075720
H            1.84760686046166        1.43320601627409       -2.85272736365867
H            0.54379017426217        2.60438013355439       -3.07950960151427
H            0.40203930588843        1.88749299249373       -5.50695708582517
H            0.12772182638722        0.51586846535118       -4.39615340227655
H            6.48689820124647       -4.46826704081501       -8.20081779394088
H            6.80092710288180       -3.18640059558642       -9.36773901597379
H            7.76101055210858       -3.26492172001895       -7.88160884435857
H            7.03946765249953       -0.87956655802478       -7.60306932800641
H            5.99604960632954       -1.00772825004361       -9.03162853982056
H            5.29344164718224       -0.55603446564532       -7.47381055620423
H            6.80246785044353       -1.52258983768809       -5.29493704113207
H            6.25363017073266       -2.88046961580322       -4.30773075362362
H            7.45115787159418       -3.14980973393275       -5.58364836047422
H            4.40475183473754       -4.46830377939049       -5.25685157092701
H            4.36611819720628       -4.63141730308332       -7.01436498841628
H            5.85232501276572       -5.00412969181462       -6.11246381092035
H            3.76802568639077        0.82810949881442       -6.33214711102698
H            2.48759864106471        2.01586776287391       -6.67871865970327
H            4.18530395788963        3.09589902709195       -5.28942844967263
H            4.12530082957090        1.79161059499198       -4.09580941945167
H            0.79900699512899        6.06005257943448       -1.96680254397532
H            1.35655892184384        6.12800964180078       -3.65673230349676
H            0.50206987062044        4.70263362731781       -3.03842092284062
H            2.40304729836427        1.66248824516862        1.60298045975501
H            0.67230967097516        1.80586399523111        1.98024261536257
H            2.04435828382003        2.17229837764550       -0.70986719393317
H            1.32490431338470       -0.14314376636741        0.08277114504181
H            0.50189833903631        0.40013587387204       -1.40063584973280
H           -1.82219977421989        1.19079313030326       -1.20674883044096
H           -2.53407411669651        1.31611005056559        0.42586936143518
H           -1.03464760044135        3.09328840467820        1.05794341253134
H           -1.70387151186964        3.53995200309733       -0.52956306192567
H            2.65166007575443        4.08154662399067        5.60000685835347
H            0.97552653276019        4.58757946388498        5.93463692685864
H            1.51627254044803        2.63237686275949        7.35182478080720
H            2.01681108584576        1.71034022908118        5.92613937900537
H           -0.79361619199578        2.79152579200974        6.47012907228459
H           -0.30929914922411        1.08759906569698        6.51547946930720
H           -2.10841627285727       -3.58924716956072       -1.21710259347238
H           -0.94716579986996       -1.46389974477261       -1.51436655745905
H           -1.38646333057150       -0.51712867214962        2.61351766654693
