151
 energy: -221.315431651539 gnorm: 0.009593941792 xtb: 6.7.1 (edcfbbe)
C           -9.53217035282655       -2.17598487683072        4.57764249002617
N           -8.51842044039449       -3.35515288980413        6.93677124308324
O           -8.93012336296962       -4.55079387437842        4.29278614097403
C           -8.43156360507199       -3.23526460001530        4.53785547043559
N           -5.35406179945388       -4.26440055842310        3.83418006829386
O           -2.81739365063507        0.83975401721272        3.97672227673517
C           -9.52038888146416       -4.74441397092225        3.02490453769950
N            0.10597961858102        2.09947327726665        2.45011659331060
O            7.67334480132438        0.05906901025035       -5.88704722379199
C           -7.72394747243819       -3.33326431992879        5.87562617349959
N            1.47601047418216        2.11493772313556        2.73162295566616
O            4.90989341337743       -0.58795485844992       -3.32147834338919
C           -7.99156748949765       -3.47261025122536        8.14108236191201
N            2.72420351933229        0.73889061333442       -0.33415316096746
O            2.60315472984493        2.95602865278222       -0.65739029478814
C           -6.62712354636095       -3.57984708660847        8.36466589670663
N            3.36949673141408        1.05640724216377       -3.23615731884199
O            0.07300577536987       -0.49624486888831       -1.19051256275662
C           -5.79034365230089       -3.55395305270410        7.26507215631485
N            5.57280415468399       -0.28648821113591       -6.67073506832500
O            3.54403099315374        1.42313959509304        2.16779386635274
C           -6.32945075716596       -3.42875770872560        5.98339838985236
N            8.47768686947609        4.66422506134537       -7.39027402561991
O           -2.62702020866084        2.53256788337804        2.51601797697965
C           -5.41099780425532       -3.32912575953164        4.84397312314907
N           -1.51531274705674       -1.82699118103024        0.69213172234715
C           -5.98754428987157       -5.55991275231030        3.85294883315868
C           -5.03948333717521       -6.63522407495008        4.38211611747735
C           -4.49526263682449       -2.32436781052947        4.61961909009899
C           -4.22458057381391       -1.14531022582281        5.49905643550401
C           -4.88258511697088        0.18858449429592        5.07458631032421
C           -4.68982283719272        1.20339857258163        6.20490337822182
C           -6.37267763316584       -0.01121392485056        4.80669215595753
C           -4.23681476606679        0.73782900498682        3.79683755504686
C           -2.14080685706278        1.73152156520216        3.28303505269004
C           -0.65832916398726        1.63868371921274        3.60278055999377
C            2.33845539685268        1.46101398872557        1.94250667788465
C            1.72413123476832        0.79274696017988        0.70702614070911
C            3.08345757574769        1.87059011414869       -0.95399755823428
C            4.07531224765317        1.64539841190041       -2.09637097226203
C            4.90342219327309        2.89856158850947       -2.45739198993846
C            4.10616165140802        4.07292985516390       -3.02300606178417
C            6.02673781156776        2.52800279431481       -3.42485668880972
C            3.91226003949655       -0.04021807643818       -3.78801564799113
C            3.30807919353375       -0.57345430761647       -5.10498312323451
C            4.03026261288782       -1.84295312361670       -5.55990572922633
C            5.46697537954640       -1.56809488369200       -6.00306244782029
C            6.67872224699615        0.45687862744864       -6.50276364872003
C            6.68380349730765        1.76475490492853       -7.10322541132621
C            6.87233050550118        2.87700394266581       -7.52875903801129
C            7.19306874709514        4.23144523570379       -7.97365411675832
C            8.47585729027837        4.68468691522753       -5.93670535783831
C            9.61788340387004        3.90237683598192       -7.86999731309619
C            7.27631344021231        4.25651830020198       -9.50844743751265
C            6.06828764314672        5.18625885832392       -7.53938775547750
C            4.35869643571333        0.18417173099094       -7.28942785986166
C            3.31460895083787        0.50139161472986       -6.21036592322611
C            2.01801566040855        1.52916082575187       -3.47395542382598
C            1.15671188453414       -0.58674721280283        1.03224421166901
C            0.66362238510214       -1.34508807603649       -0.21932183307735
C           -0.30991651207776       -2.46135003108856        0.20469244608415
C           -2.14936833114823       -1.08528033857183       -0.38281670138349
C           -1.19251471926513        0.02245280308515       -0.81080800677438
C            1.90634852301240        2.87790895371581        3.89241808093105
C            1.15435924064513        2.39714822360564        5.13177344528253
C           -0.34968624527645        2.45574478298712        4.87092345153548
C           -3.83330872300741       -2.65616331658346        3.40244440349305
C           -4.38786350889066       -3.87904919471384        2.94734650912742
C           -3.95110050710496       -4.47050903482076        1.76586187853716
C           -2.98654954354294       -3.82068306792502        1.02448653168037
C           -2.43671158457317       -2.60563639236954        1.45833336913649
C           -2.83429269529360       -2.04187598530526        2.65272481663730
F            1.97604325618595       -0.96037799478762       -4.85743083352435
H           -9.99833217153765       -2.07140321240182        3.60194112114147
H          -10.27814943401872       -2.46455343679284        5.31221799603166
H           -9.10204697792305       -1.22066729722361        4.86226573747038
H           -7.70298670843757       -2.98113453591226        3.74918165337109
H          -10.49786405319180       -4.25014318549685        2.95635148092274
H           -8.86138174571889       -4.37174861063876        2.22448534996597
H           -9.65118430717488       -5.82577970840078        2.92400433184356
H           -8.69953905073856       -3.47944062503705        8.95864991421976
H           -6.23752837996953       -3.67896864224943        9.36459185530196
H           -4.71969249850010       -3.64148919855911        7.38089289030427
H           -6.87619607300663       -5.50431682319715        4.48559350328489
H           -6.30514926394959       -5.80653935455501        2.83567787594471
H           -4.16313318635320       -6.72345146185330        3.73986927302254
H           -4.70887449776751       -6.38219862113996        5.38911952365808
H           -5.55285457656797       -7.59298502279681        4.41209083239535
H           -4.58407944615226       -1.37445629934034        6.50289349189300
H           -3.14617401734833       -0.98830959373442        5.54643108321927
H           -5.17041763425746        0.85269610384051        7.11356372494911
H           -3.63153671186053        1.34910057744037        6.40655759243759
H           -5.12490129612472        2.16243836407723        5.93374827447101
H           -6.84666338747301        0.93422961098403        4.55348823826514
H           -6.52225806520691       -0.70435211989205        3.98184305725707
H           -6.85614910632288       -0.41949841907279        5.69059513529137
H           -4.63153688914098        1.72754691109865        3.54700958022124
H           -4.41995951461787        0.06454916868928        2.95363372884535
H           -0.40095249858208        0.58910038952224        3.78009023665056
H           -0.21385287163540        3.03173460836537        2.18153121888484
H            0.93274228166857        1.45713325250210        0.34488691181099
H            3.23318851663982       -0.11536701549106       -0.48990124612441
H            4.79600111273211        0.88663138048467       -1.76504913725455
H            5.35028931291294        3.21772228092466       -1.50908191621431
H            4.74431460000300        4.95460082668598       -3.04626764468450
H            3.77904336425025        3.86896685713953       -4.03748640233781
H            3.25309970333438        4.29333299074994       -2.38670325216890
H            6.69130912634764        3.37626614121958       -3.56623842379018
H            6.61343306871942        1.68879356368502       -3.05674662511906
H            5.62564782812602        2.24814924140705       -4.39778559430600
H            4.04514219128914       -2.55377503089309       -4.73372422209699
H            3.44459169099503       -2.27310926736095       -6.37287461875006
H            5.80615321786761       -2.36429898182345       -6.67425954639854
H            6.13633993989825       -1.54126143906825       -5.13862377779082
H            7.71323230664360        5.36452432686958       -5.57114451001588
H            8.31467428016028        3.68953905276498       -5.49670955218900
H            9.44195290705001        5.05449005897897       -5.59946024533140
H            9.52167709118916        2.82054954910271       -7.68084133869280
H            9.76165063902747        4.06807738071963       -8.93501204351617
H           10.50729665795872        4.25864666181743       -7.35188378752001
H            6.28037884674468        4.15390128587046       -9.92981452092675
H            7.69882697319136        5.20663670806017       -9.82198228102269
H            7.88874415778174        3.44435072484318       -9.88829445247505
H            5.82663533540996        5.07064262175875       -6.48931605690521
H            6.38160061046543        6.20580357458572       -7.72694637704129
H            5.17275474570362        4.97767204196698       -8.11320454799305
H            4.57644019050789        1.07998487104981       -7.87180594218832
H            3.99531349077012       -0.59747977810445       -7.96048184081300
H            2.32433708701372        0.53911603321269       -6.66576828924539
H            3.53803927105903        1.47637517900313       -5.77664164105375
H            2.00628259215912        2.61597435875473       -3.45101180872985
H            1.63651575261615        1.18433191080127       -4.42632502931933
H            1.35324507565871        1.15371517156167       -2.68884493139102
H            1.91850495459651       -1.19142379577738        1.52505646794325
H            0.31253953700772       -0.45675043980354        1.70786367174968
H            1.51238104144868       -1.78853049524866       -0.75142254231548
H            0.13498152702337       -3.05328178498344        1.00653103067749
H           -0.49455578657968       -3.11828817517975       -0.66532016865825
H           -2.37867386138016       -1.73454015518336       -1.24800371169903
H           -3.07759308990986       -0.64411037812441       -0.01599955235003
H           -1.08663902989962        0.73736586118757        0.01439592310213
H           -1.56452494974139        0.54151637525531       -1.69534531929540
H            2.98264852237924        2.73386339995424        3.98914212174671
H            1.70136470694174        3.93789813612700        3.70785790339804
H            1.41787050777756        3.02553063301203        5.98159802608682
H            1.44838695780464        1.37055445557496        5.35494644518763
H           -0.66482404823506        3.49088229873046        4.71425370057340
H           -0.90406388124617        2.04746361118759        5.71528009343841
H           -4.36501268958100       -5.40644090434580        1.42170454394373
H           -2.65399702658668       -4.25073110525414        0.09067050593027
H           -2.36772716971724       -1.12747244375606        2.97450083455474
