151
 energy: -221.325548778062 gnorm: 0.004544349871 xtb: 6.7.1 (edcfbbe)
C           -8.50327394632343       -3.12987665879407        2.43932293072409
N           -8.10229236854792       -4.70519615834110        4.70543401588113
O           -7.15715943444751       -5.08830723422130        1.83075097547780
C           -7.19515261928028       -3.89882615301670        2.61676368658876
N           -4.07029701508286       -4.62560553480886        2.91007162745923
O           -2.64188356439812        0.81985732810176        4.40100500955691
C           -6.89058476678462       -4.87557506867854        0.46391209146354
N           -0.08561599298530        3.01808115261341        3.60389552701945
O            2.63777807319871       -1.74159493008212       -7.02536030120913
C           -7.01051760588537       -4.31516252548544        4.06544703864937
N            1.12131892344093        3.56777987467913        4.04446430999915
O            3.84022146730440        2.03996596330071       -2.74358586747566
C           -8.01862878710758       -5.04928854127165        5.97799659444391
N            2.80429341932746        2.83834392607177        0.99993016423377
O            1.20131887422527        4.33109345532143        0.52009023072734
C           -6.83625172830178       -5.00424491939991        6.69956032037476
N            2.17874662239675        3.47942770912994       -2.24151634007781
O            2.21608215439775        0.25912211278746        0.42718139137428
C           -5.68630511861635       -4.61575049803113        6.03602981258617
N            2.37043142700533        0.48745248879430       -6.70598599031632
O            3.29553217802574        3.96304646093186        3.60249028235308
C           -5.75166390542855       -4.27420791399660        4.68694284522226
N            7.49246859910670       -0.99384681075287       -8.61092181846804
O           -2.77228424139263        2.79711897228077        3.35573667705934
C           -4.54309007098859       -3.87255898585558        3.96135440857606
N            0.20830970639606       -1.51815914059043        1.29942319619770
C           -4.37910954590652       -6.01527609207505        2.68144520707867
C           -3.47540055907798       -6.91908347392492        3.51925379067504
C           -3.77176787600638       -2.74243806891142        4.12971126870892
C           -3.91387096329899       -1.72159813438478        5.21510072202243
C           -4.69545529766626       -0.43671942943245        4.86491932834076
C           -4.91650646905864        0.36818277202393        6.14809953157574
C           -6.04414851138626       -0.77371621202054        4.23092399091431
C           -3.91479475664925        0.41683654133533        3.86032413903679
C           -2.18341077964678        2.00341823469058        4.06018916217846
C           -0.81103435502310        2.30345176419150        4.64627861032430
C            2.24646844912726        3.39222725106629        3.33076444128720
C            2.12106434603760        2.38011974010761        2.18858028466755
C            2.23567993816175        3.74454069503686        0.20507708594520
C            2.95791117788084        4.00222970383528       -1.11876544681779
C            3.25055536459512        5.50626740661384       -1.28406426214791
C            3.86221795893616        5.79179426245373       -2.65268655575615
C            4.20072149361782        5.94333489548792       -0.17071228146654
C            2.77567234609764        2.58722379510427       -3.04021139165629
C            2.18924451382943        2.21225214029463       -4.41508981782569
C            1.64918798438068        0.77880226230193       -4.39075224441751
C            1.25737581483059        0.32329038616606       -5.79979739193583
C            3.02118058342181       -0.58277116664172       -7.19667223225599
C            4.21555431051140       -0.30199824080347       -7.95168553258704
C            5.26439866719034       -0.25461072221545       -8.54219334122809
C            6.52891150816164       -0.09445688669755       -9.25866698137406
C            7.71689360966289       -0.69802999182439       -7.21044991682681
C            8.75223446555497       -1.17169293498108       -9.30140710339815
C            6.27261127522447       -0.52811756408067      -10.71064977299011
C            6.92391320200051        1.39747678485942       -9.22866034899107
C            2.83469805014353        1.84831226692627       -6.81931470216297
C            3.30740770870698        2.35795832056820       -5.45681020842887
C            0.84306888072884        4.01122347908381       -2.41988653249286
C            2.67086728828565        1.02894772953884        2.64610879086314
C            2.12645285379320       -0.12042977710160        1.79250506696062
C            0.68150687411913       -0.47625138149791        2.18248170334534
C            0.25745040351164       -1.07056023589623       -0.08062685017352
C            1.70867576016397       -0.74236041043647       -0.42431635122893
C            1.04723650600309        4.43478308989508        5.20755570766346
C            0.41479725048064        3.65362715630453        6.35965172237911
C           -0.95926427454730        3.13286055722938        5.93572003863075
C           -2.76390828786696       -2.79406024005973        3.11892392705402
C           -2.97897971295654       -3.98719142155840        2.39012911264379
C           -2.15455194087616       -4.33948428042893        1.32736438209516
C           -1.13239950138074       -3.48697141983777        0.99104518391573
C           -0.90047248134447       -2.28738469455699        1.69399480348339
C           -1.70719373514385       -1.94940306855305        2.76675967129251
F            1.15787121527801        3.06157078698984       -4.82263869543491
H           -8.50367031184326       -2.25864332413341        3.08693242246013
H           -8.61705633774248       -2.80281619595708        1.40958130763621
H           -9.33152023858072       -3.77700576237155        2.70903061419261
H           -6.34460934820778       -3.26373263690380        2.32062981571533
H           -6.74502943611756       -5.86288200076739        0.03001027889068
H           -7.72204280640522       -4.37906115442273       -0.04193768531635
H           -5.98113112209740       -4.27822649767410        0.33222926236927
H           -8.94574196923698       -5.36658397132399        6.43582944048106
H           -6.81769265018344       -5.27160329130525        7.74321424387210
H           -4.73519160042974       -4.58779536973568        6.54775840302945
H           -5.42731778515738       -6.19107420751008        2.92928721926450
H           -4.23993329382085       -6.22733250296168        1.61935512348487
H           -3.63760828903150       -6.73602814452706        4.57896344922546
H           -3.69376705931800       -7.96137047925139        3.30759763756541
H           -2.43049962709042       -6.72283566031269        3.28957132513621
H           -4.42361739912339       -2.18895218550133        6.05969588452355
H           -2.91496091400560       -1.42500255034217        5.54119759696429
H           -5.52119151142962       -0.19965200708220        6.84888214729176
H           -3.96504345857306        0.60166248175772        6.61792038252265
H           -5.43168823651056        1.30033062322151        5.92645507688252
H           -6.60687043203042       -1.44060480721298        4.87883475848160
H           -6.62683439516490        0.13003635824191        4.07066173189079
H           -5.90129612903536       -1.26403873032954        3.27228276298041
H           -4.47494261958519        1.31890604023765        3.59941837044998
H           -3.71732107168678       -0.15313492860284        2.94838215771117
H           -0.28425936955429        1.36793023735888        4.85803715404360
H           -0.68806340929845        3.74735571033583        3.21584095595892
H            1.05743654002717        2.30606686326351        1.94350594178097
H            3.64240456157763        2.35296772849783        0.72122882401430
H            3.90142241409066        3.44919284047040       -1.12975090222018
H            2.30897876079736        6.05316750004533       -1.17886595177234
H            3.16665097887214        5.55442251910415       -3.45348908944724
H            4.12411255419631        6.84299475649331       -2.72870635996201
H            4.76257566496920        5.19708428369075       -2.79305446571670
H            5.13421020646557        5.38893470567049       -0.23092474798236
H            4.42122106202360        7.00283056706504       -0.26167397913143
H            3.75830548083813        5.76582172651835        0.80760713096592
H            2.43418885710410        0.13565778767291       -3.99063396411544
H            0.77881113969440        0.72603201061397       -3.73553842877830
H            0.41613371829876        0.92287551122503       -6.16030755675942
H            0.97880778310255       -0.73176761327968       -5.79423073774335
H            8.36877748305358        0.17469615675306       -7.05176473666002
H            6.76398718944307       -0.52347020128422       -6.71410390784279
H            8.19059792497217       -1.56413173249188       -6.74816703233255
H            8.58178897484937       -1.52551338984387      -10.31336168777033
H            9.36573935407267       -0.25848628044305       -9.33305987008921
H            9.31500284870824       -1.93630946004059       -8.76700252635287
H            6.12100863512228       -1.60290118998060      -10.75289453549997
H            5.37735581149152       -0.03501901498311      -11.08114223445314
H            7.10671503863594       -0.25008950091843      -11.34831470070108
H            7.89029961473609        1.53409289453749       -9.70722772034881
H            6.18302224457874        1.98172430438127       -9.76667693983081
H            6.97840367145370        1.76299169719376       -8.20620409714198
H            3.64832329058394        1.89675054216293       -7.54264303502651
H            2.00221656885262        2.46805075283139       -7.16719398826601
H            3.58423557567666        3.40997345560734       -5.53254114590843
H            4.17084184681976        1.79117452464759       -5.10869977614623
H            0.50408896765296        4.39942422242412       -1.46173740337283
H            0.82271420260486        4.81526877156855       -3.15635424663194
H            0.15743721946843        3.22701238734558       -2.73130359394847
H            3.75897620240587        1.06083305957290        2.58834697823736
H            2.39160857598232        0.85452092293618        3.68439561069802
H            2.74290577134035       -1.02107360940833        1.94619606173408
H            0.05317866787060        0.42839692722159        2.12897926035486
H            0.68447107304946       -0.85514737249224        3.20443383395776
H           -0.11356425170755       -1.84833615500735       -0.74376393066049
H           -0.35679037456974       -0.16368728786156       -0.21656070357149
H            1.79817108750835       -0.34287535499039       -1.43548053012673
H            2.31841411330310       -1.65265849053339       -0.33398609367212
H            2.06131098775086        4.75978323156511        5.44045476578082
H            0.43521194007482        5.31032460538602        4.96190349587860
H            0.31602352533345        4.30313866304500        7.22784325759619
H            1.06185301530063        2.81642950273403        6.62374895140215
H           -1.62955149807153        3.97290878887665        5.73950802829223
H           -1.39467794739494        2.51557500564786        6.72012186791525
H           -2.30367684408628       -5.25702688582857        0.77915187214972
H           -0.46817408159074       -3.74991658029226        0.18281894202428
H           -1.53466635796501       -1.04776868490856        3.33017142960734
