151
 energy: -221.320321904226 gnorm: 0.009903215971 xtb: 6.7.1 (edcfbbe)
C            8.24487004687705       16.45727900236652       23.46326687327732
N            9.31358399412291       14.00696912042866       24.39232390505023
O            8.34725717197880       14.70635572197688       21.74236467472802
C            9.12086703292608       15.56894031656656       22.57894460617564
N           11.94587232810411       14.99912411455011       20.86873995084155
O           14.96775154952502       19.19215295358309       23.24459116969816
C            7.72186723351632       15.34355634055358       20.64978751575268
N           17.66981349140222       20.98091427131448       21.73005620771303
O           23.91924115657344       20.09087911486977        9.46440821580333
C            9.97121489079405       14.65242962953443       23.43943920541651
N           19.04311397270916       21.09753273566388       21.96684116230801
O           23.40627220340584       19.45070776614102       15.72784380723062
C            9.96536877960572       13.18213689008127       25.19123530334933
N           20.72711546404954       20.30817572930509       18.80941046590908
O           20.95457592880650       22.52753022137085       18.52276790156786
C           11.33025348562827       12.95882541999519       25.09629301043093
N           22.86011537223903       21.54142035313066       16.36841301839698
O           17.45514726850083       20.32597729099395       17.66735303465972
C           12.02520910450958       13.62713200717871       24.10616699262891
N           24.79737025163335       20.76154671110768       11.44168374450294
O           21.16593594152063       20.78538047482028       21.34848547045239
C           11.34969978128206       14.49061940764826       23.24157769776708
N           29.16603386100785       18.03649780825865        9.56226644587563
O           14.91110134019836       21.02743408749295       21.95529114455691
C           12.13351945466330       15.19512948045842       22.22057438509814
N           15.86613146085011       18.42877594749324       18.99965005444876
C           11.12422016878374       13.97706303248537       20.26941663568286
C           11.93252242830740       12.71283407222194       19.97947581008361
C           13.16790891089005       16.07900827068859       22.43553924296494
C           13.68835040666235       16.58504202513616       23.74100083530892
C           13.11708511300680       17.94969966594309       24.19498710932914
C           13.65260186749586       18.26152600937489       25.59454988608973
C           11.59106105383656       17.89669034120913       24.23043414435622
C           13.53711710853489       19.06892932271903       23.23403488407160
C           15.52061285775276       20.18511993145147       22.57648571103908
C           17.02970725439402       20.16475858081895       22.75857834803898
C           19.97227745771609       20.75168744066139       21.06399637582125
C           19.53175435938635       20.42564823926411       19.62594396897077
C           21.40153103523569       21.39222785922771       18.39701631670849
C           22.77079029705217       21.11170551250271       17.76358241124604
C           23.88540357346701       21.79695582383864       18.59363375343547
C           25.23025416291755       21.72728498218586       17.87017101451386
C           24.01109503153275       21.11588290570667       19.95255931602324
C           23.37329239163728       20.65868519352480       15.49913315294284
C           23.98205015064927       21.15142693251506       14.17132322041786
C           22.97745338219404       21.19722508706278       13.01752538915490
C           23.68943920695334       21.64217670290723       11.73840035115614
C           24.81039467072851       20.03209075078773       10.31418577478094
C           25.95124223239313       19.17467812946359       10.11175711423664
C           26.82297199121186       18.43597655858249        9.73126460098223
C           27.83512413636437       17.47071596702094        9.30434715772900
C           30.27148906086077       17.30238892446054        8.98205168501388
C           29.42146035378110       18.31655270123067       10.95957928882152
C           27.54732927718840       16.14986040577843       10.05234415301383
C           27.61850087978727       17.26478226266034        7.79603998768748
C           25.79110834241273       20.68581846302869       12.48453406543842
C           25.15098355870218       20.23136409453275       13.79610385987763
C           22.60033696075106       22.93931316971917       16.08887425262359
C           18.65953623071724       19.17929028951769       19.49106030469784
C           18.00417108754958       19.08942101255467       18.09880729033357
C           16.91230506019895       18.00623164936976       18.09104653623203
C           15.26172433696858       19.66257509062308       18.52046235409626
C           16.33837201198527       20.74064114938611       18.43887322690222
C           19.43826869771199       21.60271151516449       23.27631240340012
C           18.85170284619024       20.72045449801614       24.37257987956546
C           17.33846044459305       20.64821796547100       24.19037093293994
C           13.65612647001895       16.44140790917328       21.14672531865319
C           12.87339475403911       15.74314031224042       20.19324118179606
C           13.10539055911875       15.89289787156836       18.82943510667458
C           14.09964814610310       16.76001429061082       18.42684969021469
C           14.88259190409200       17.45512779768650       19.35978880044513
C           14.68239097530376       17.27445245486835       20.71143976481792
F           24.52057787096600       22.43150055999185       14.35038819219105
H            7.64432694139181       17.13333699593137       22.86189610326867
H            7.59452167842517       15.82329733727554       24.05772470631867
H            8.87497440245149       17.04575018183520       24.12334232876428
H            9.77201689005494       16.19070694934292       21.94309876726570
H            7.14737900255150       14.56805109769986       20.14655682509386
H            7.04626783608239       16.14163543829893       20.97171162579266
H            8.46812789741556       15.75894431929658       19.95890552834361
H            9.36159934745415       12.68612537458878       25.93861868542031
H           11.82775507665480       12.28238489678337       25.77179554039810
H           13.08809361053141       13.48115127292386       23.98011620126240
H           10.29930632498759       13.74272407134200       20.94354500536532
H           10.70740084747296       14.37146783073212       19.33994048529089
H           12.34671897329070       12.31048152127053       20.90015455089392
H           11.29515315178265       11.96224047230204       19.52585778328688
H           12.75011229722416       12.93717766450945       19.30022273274274
H           13.45799620141779       15.86067907848573       24.52423239788239
H           14.77379922352940       16.68080164835556       23.67074150866066
H           13.31677165270283       17.50811592377848       26.30086263313071
H           14.73820489373247       18.27391969535335       25.59029012910904
H           13.29667174694553       19.23145921459990       25.93038982918931
H           11.18960726583971       17.76576617422291       23.22906778125365
H           11.26767557088088       17.05924721696720       24.84317811334135
H           11.18584501226936       18.81237211715619       24.65081864504875
H           13.10364265159692       20.02679304740224       23.53469532360012
H           13.21485785464790       18.85281965164283       22.21226184196247
H           17.38504434148200       19.13504896668181       22.64530096297111
H           17.22834809458328       21.90326705781860       21.71686124891059
H           18.98778971925939       21.30296622796519       19.25670594532512
H           21.18672329163914       19.40940051914346       18.80516901033615
H           22.95015600828608       20.03275195362748       17.75065587105382
H           23.59750636265326       22.84225650231432       18.74311989544534
H           26.01285568570436       22.10103789309601       18.52474506279378
H           25.46077627622743       20.69490724664567       17.61155776533043
H           25.24284944499017       22.32070801787130       16.96031012831514
H           24.31960819984601       20.08056844036549       19.82730682449427
H           24.75942135124331       21.62597561241310       20.55236611001907
H           23.07039461402846       21.13644615716164       20.49282067870913
H           22.56199480181305       20.19759939897685       12.89450987766530
H           22.16229893480151       21.88589732053940       13.23877780162579
H           24.07392961040313       22.65945322649916       11.87186451552092
H           23.00621375452700       21.62109807255090       10.88742718072571
H           31.18211602390336       17.86709850028238        9.17370209370650
H           30.40243314604946       16.29622310374970        9.40924836344342
H           30.14683926080516       17.21781835040497        7.90788903004295
H           28.56621021192769       18.83186980438332       11.39077030469968
H           29.63081619815377       17.41482691079143       11.55145279946039
H           30.28843201939759       18.97303925846866       11.02551436165194
H           27.51629526351009       16.31163801869490       11.12682995888673
H           26.58544415128705       15.75693223130986        9.73733045114661
H           28.31591263710219       15.41726370883515        9.82316690355646
H           26.55402791471155       17.17163181569185        7.59685044673492
H           27.99627445178175       18.12329149985521        7.24773937746324
H           28.11366609245034       16.36206948024911        7.45190881281063
H           26.57309299179853       19.98588428561541       12.18656538223739
H           26.23513100649495       21.67844680027001       12.62179533023258
H           25.89395292689256       20.24991262828755       14.59452070007090
H           24.76615520830344       19.21575265391897       13.71055232088948
H           23.47971307035187       23.55890417264418       16.25806947415051
H           22.27401644119062       23.06747100374620       15.06509827929099
H           21.80833622685434       23.27250530713999       16.75159096109473
H           19.26403737396538       18.28685329922719       19.65124694192454
H           17.86671191215433       19.20995579229199       20.23529149472645
H           18.76208094331204       18.86073944630549       17.34080777317040
H           17.31918317176342       17.05588173141485       18.43429561842967
H           16.54993918713247       17.88992916819285       17.05614362146375
H           14.79360789841519       19.52498054225397       17.52907792738263
H           14.49682476948880       19.97966522682210       19.23160595809836
H           16.64933940133345       21.00633365457774       19.45477573310951
H           15.95384006962076       21.62710902996879       17.93289994927595
H           20.52700629094742       21.61384707210037       23.30569416464423
H           19.06566003499749       22.62830701923719       23.37400198360243
H           19.09983185709785       21.13724227030394       25.34771679189629
H           19.28262389977818       19.72065781769721       24.30150220378019
H           16.89849111184024       21.63775497907210       24.33802642664709
H           16.89254240215918       19.96057362070898       24.90698759659598
H           12.52097499317131       15.35670450102229       18.09805929814339
H           14.27846223891792       16.90743439291938       17.37152352781922
H           15.32392071351557       17.79012945403236       21.40432892158857
