151
 energy: -221.322146340773 gnorm: 0.008778822977 xtb: 6.7.1 (edcfbbe)
C            8.32105356355077       16.80690347867985       21.84172354991438
N            8.91326291363338       14.59255054752297       23.42397267546786
O            9.31925854955078       15.07647260930981       20.41175951975569
C            9.54294550365695       15.94655526438123       21.51947009091225
N           12.60429377872528       14.72086770223451       20.93837204477635
O           15.09781032484176       19.45074331588578       23.19445331464206
C            9.32444445319506       15.72128029481850       19.15529076189521
N           18.15836946847304       20.93348122582822       22.09670832568453
O           22.69070705906041       17.60915171152064       10.03609413599382
C            9.91618512646358       15.07170680048730       22.70209528571475
N           19.48284885469181       21.02491750682649       22.53784266426051
O           22.52477334005668       18.87348950201165       16.03385591471395
C            9.17606234926283       13.83658673828480       24.47469000341537
N           21.35621304200308       20.16939979080764       19.51550213550303
O           21.13361654215798       22.17377283204292       18.51127852614948
C           10.46442770401415       13.53349548487432       24.88925082875559
N           22.78184504840969       21.07574286051976       16.44317046091042
O           18.50243011824473       19.74188289790316       18.07381799896283
C           11.51750498178104       14.02185808817588       24.13753312702998
N           22.95024078779422       19.37823353766737       11.43207272764995
O           21.67566958741743       20.84377682524649       22.07827472787905
C           11.25541807142144       14.79345974993032       23.00703277172417
N           28.12137084466977       18.68099078568999       10.57718137225780
O           15.47186389065229       21.12069371191589       21.75161982658186
C           12.36833549817747       15.27363807136909       22.17849720304860
N           16.81027115045817       17.93570345471120       19.40008872008815
C           11.98744843015551       13.52414506452996       20.42447052853906
C           12.69660674523997       12.26864152974134       20.93055594778747
C           13.29168620185480       16.25677500118036       22.45341138635424
C           13.45196688639640       17.02341959070715       23.72945065853270
C           12.93206992678158       18.47974335137753       23.76396707078781
C           13.08729228762239       19.00793495949691       25.19313231695666
C           11.46219521665608       18.53383542293697       23.35060356039142
C           13.71538732305644       19.39056688931279       22.81081194086985
C           15.86563428628462       20.33174435390131       22.58246288395853
C           17.30376453039502       20.25788318598734       23.06994517457273
C           20.50756094017095       20.71880810456992       21.72621387572556
C           20.15262386886953       20.26829848332270       20.30770543097927
C           21.73951119234414       21.12099356020414       18.65677202393540
C           22.99806279650489       20.77126478226226       17.85508628824908
C           24.23830927739384       21.46452608884714       18.45444164964005
C           25.45003305704373       21.26828967634347       17.54664844523477
C           24.51395119288850       20.89387334483953       19.84517540378763
C           22.53112642485058       20.03927820574369       15.63220277026479
C           22.39432630451068       20.26491162516783       14.11493903042644
C           21.60757260914056       19.12663310613106       13.46174598450197
C           21.59949099172759       19.29428093126241       11.94216582971739
C           23.39886087365619       18.49542280140290       10.52261668313004
C           24.78210468151118       18.62398202050444       10.13668835668843
C           25.92255683813769       18.53595622067966        9.75874176666679
C           27.32738069245525       18.46659641669123        9.35623598716277
C           28.00503693425742       20.02170913214086       11.11465037881048
C           29.51055174321585       18.27588334400416       10.51042151085573
C           27.54948028819609       17.05710256236836        8.78785418997236
C           27.57936044654712       19.50529343443662        8.24313516630252
C           23.72282954832868       20.46225514543069       11.98405716479192
C           23.80123242261875       20.34529984458641       13.50863446399316
C           22.64735682933194       22.46836873234027       16.06320725308728
C           19.39576948461226       18.94220385347950       20.22953302506075
C           19.02232519174358       18.61852866767745       18.77019913047945
C           18.00637561400497       17.46993875219392       18.72866977806173
C           16.23315022589968       19.05403276670634       18.67071689389158
C           17.25419161855076       20.18347646920764       18.58480432387087
C           19.70154650738534       21.62164141686415       23.84897310769524
C           18.87737257761080       20.87966496154346       24.89707154735722
C           17.40933094868274       20.87610605045890       24.47622541250824
C           14.14686132945088       16.31901933979566       21.31309441725178
C           13.69441491137928       15.33761036412730       20.39528500151302
C           14.33032843026068       15.14231983249028       19.17372354158965
C           15.38166145631962       15.96965414550787       18.84448153192041
C           15.81983779365032       16.96516087980113       19.72836782732458
C           15.23624269049074       17.11222153100013       20.96928976003780
F           21.70718935386513       21.44852034661307       13.82184537026256
H            8.13505321936304       17.52090548874956       21.04307198108330
H            7.45585767285475       16.16072512158005       21.96532964435366
H            8.49336773975805       17.35112617502170       22.76664921550169
H           10.40380107953210       16.59216403641670       21.27840802141266
H           10.22499734241191       16.33484200464891       19.03667949002703
H            9.32348010110595       14.92727714453968       18.41141167093756
H            8.43894303078992       16.34701462834618       19.01952898540915
H            8.31032074983665       13.46819272206035       25.00675063875116
H           10.63392044356466       12.92783127600709       25.76416833273745
H           12.54142698003138       13.80528049835845       24.40529557625104
H           10.93672818703810       13.51040548937747       20.72248083344669
H           12.02951935935300       13.56236755155602       19.33287941948112
H           12.59087481305333       12.18319967015811       22.00899951881958
H           12.26033378973358       11.38879071332532       20.46794144898912
H           13.75540098616899       12.30759797306778       20.68523930971509
H           12.92923109873274       16.47972340807283       24.51832950501746
H           14.51515727344415       17.04753362606646       23.97658894281742
H           12.78110347370764       20.04930131918776       25.24787620957443
H           12.47220605660718       18.43123628489461       25.87779037192995
H           14.12369867530359       18.93500339951296       25.51054087193492
H           11.06155458941670       19.53525665992667       23.48491624755673
H           11.35233355215999       18.25897975474161       22.30585305760068
H           10.87827961198450       17.84207736798447       23.95171624511831
H           13.30788873147801       20.40628639490306       22.82890923583867
H           13.65628078029390       19.02013194384370       21.78349964935679
H           17.60551559601316       19.20613264864147       23.11718156379911
H           17.77132131769923       21.85984767613672       21.90352577919189
H           19.55783985686718       21.06889711541508       19.85306414551739
H           21.93715007407031       19.35747039822331       19.66537805023204
H           23.15760689238990       19.68833977620719       17.89330662155308
H           24.03293609583192       22.53399073031461       18.56523971278712
H           26.33834212876112       21.66644274766048       18.02804314587392
H           25.60713685108250       20.20902591636193       17.34806759862031
H           25.31657246768932       21.77846352148454       16.59702334500583
H           23.68445353144549       21.07395149655359       20.52088982751518
H           24.69513594629566       19.82712508999403       19.78950176447154
H           25.39508606242396       21.36642166424557       20.26583930139384
H           22.06841659592597       18.18198971991571       13.74754070605044
H           20.58429413491318       19.13733151790361       13.83837070585050
H           21.06189115231884       20.21242223363717       11.67764568572282
H           21.11170313247698       18.44273705453008       11.46497418312206
H           26.96642233774004       20.34626012312932       11.06590140990084
H           28.30990507615938       20.00056159564227       12.16264956624218
H           28.63319520481025       20.75465036567301       10.58623291888484
H           29.95317755252845       18.45458003578790       11.49006250849282
H           29.58500307822451       17.21241181682109       10.30101137345642
H           30.09616756798188       18.83519543624749        9.76422312178872
H           27.45701834164283       16.31531076296935        9.57591362202974
H           26.79415239676733       16.85403347511820        8.03187755991233
H           28.52855145390996       16.97893905340728        8.32338626353603
H           28.63519633336112       19.51395832963187        7.98030503204810
H           27.00313725933398       19.24187467122751        7.35970751789118
H           27.28330799905195       20.50128376390954        8.56196011990989
H           24.72797985558000       20.44236148799499       11.56052018867669
H           23.23595751145858       21.40812125456927       11.72147214233387
H           24.33607189284211       21.20577263033591       13.91061816326130
H           24.33623531397123       19.43649389935910       13.78999431714908
H           22.95111453105185       23.08654816960852       16.89966288199634
H           23.26731330180486       22.70155053613926       15.19959881018573
H           21.60982926891761       22.70910006461890       15.83485903903879
H           20.01922612314230       18.13734796652557       20.61796018052657
H           18.48118604156603       19.00125484275603       20.81449844419438
H           19.91621981097678       18.35040692323760       18.19639069082252
H           18.39448266006939       16.59862531018108       19.25588621145718
H           17.82627835659589       17.20618724784039       17.67373487810130
H           15.92420962898916       18.74841768836592       17.65511804843091
H           15.35360744135606       19.41411604040219       19.20886342389106
H           17.37713712087591       20.62842254030706       19.57804878904905
H           16.91690499135546       20.95185073308196       17.88770119260472
H           20.76995300014054       21.56352653501673       24.05495040868050
H           19.40063110978056       22.67556072123521       23.80864794742156
H           18.99521941821325       21.36817576947325       25.86371954491560
H           19.23885224654834       19.85409788333983       24.98049022557828
H           17.02508964771351       21.89910594332109       24.45068276784979
H           16.80711203839296       20.29721513688557       25.17477075887916
H           13.99859045910743       14.38290255927123       18.48416069309529
H           15.86931778259785       15.85701529251705       17.88772059202879
H           15.63803019712621       17.85189235588471       21.63829158021908
