151
 energy: -221.318397632779 gnorm: 0.009357882435 xtb: 6.7.1 (edcfbbe)
C            7.96170015605313       16.27922987290165       23.33382292944591
N            9.24201469610191       14.35798434296759       24.92633360827208
O            8.73492934322055       14.40866963161416       21.94563294763472
C            9.14726373571013       15.48261046055698       22.79076535245226
N           12.16826531637911       14.77067585485225       21.54019100766140
O           14.62505101681910       19.76271395356994       23.11373319135374
C            8.29869318381629       14.80700337434431       20.66522830398187
N           17.48461646733699       21.22954461807769       21.54700263638267
O           24.44701458595221       19.19243672661073        9.52063933261167
C            9.94429020894806       14.85581496814866       23.91869388118142
N           18.85766218594876       21.30747811925350       21.80327871337310
O           22.78250374841742       18.89912109733942       15.35540406429941
C            9.87360228203297       13.79499653214455       25.94065534139628
N           20.50291762142313       19.93415617310496       18.82070572791949
O           21.20124997223670       22.00230455980752       18.25296293536068
C           11.25496235266948       13.70871174143020       26.02062173658266
N           23.13708657730391       20.77676706354662       16.54546221982880
O           17.12309023767495       20.17512029912293       17.66083175534392
C           11.99658838240542       14.22806750097147       24.97584686502704
N           24.78351461963770       20.31605532654264       11.45977623072505
O           20.98080475783119       20.87649129047981       21.22461147268688
C           11.34474284183966       14.80687101642325       23.88724512609777
N           28.93820911416739       18.42310450798439        7.89912958007698
O           14.75130264797583       21.43970542153145       21.63067682442752
C           12.15008617980166       15.35334578456416       22.78819351675519
N           15.66729795781957       18.24609344441862       19.07147981576020
C           11.59557291139351       13.49802403090350       21.17781390529038
C           12.62183688783755       12.37197301229345       21.29300783180759
C           12.99388356671723       16.44157421453188       22.82256435003022
C           13.26857199402681       17.33935486729898       23.98808211983127
C           12.57850245327161       18.72510451993924       23.95619600120604
C           12.71535219199772       19.37367628348803       25.33719572954368
C           11.09748187406700       18.56542971170342       23.60863004886778
C           13.20622511079153       19.65490114626947       22.90994025462535
C           15.27703654012480       20.65942950355661       22.39651272995982
C           16.77257131229029       20.61240592922151       22.66600377057851
C           19.78322466628818       20.83479001790712       20.95119063613546
C           19.32812537574736       20.33515065235631       19.56877676049712
C           21.39017191731178       20.79511016242134       18.30174549050671
C           22.63155301798980       20.09181302258392       17.73089864019114
C           23.73022921034751       19.90024457800443       18.80435377337817
C           25.01970689348732       19.42030540399632       18.13765795377701
C           23.27449576095641       18.88667253056265       19.85333989685871
C           23.14003456819937       20.07859284553997       15.40461303717246
C           23.64922688937084       20.69147590838415       14.08842986786742
C           22.82483510063044       20.14304937987410       12.92027055563133
C           23.38486453079544       20.65407254950632       11.59700286907066
C           25.21090313463607       19.64293678158389       10.37870184019499
C           26.63276202977824       19.49196271371095       10.20300048174766
C           27.71312287640120       19.26784958544471        9.71645324410040
C           29.07080873914910       19.08692115680222        9.20391998537457
C           28.30145852385872       17.12341901443983        7.96759586857838
C           30.14008336908514       18.37279460041758        7.09308875440196
C           29.67336343204460       20.49065105019157        9.03010555430610
C           29.89634409706794       18.29683017267056       10.24077542037265
C           25.63269870895288       20.80373824900978       12.52013756946625
C           25.12508720127598       20.32430136798047       13.88635932993144
C           23.56851420369179       22.15276131084900       16.69035184640666
C           18.33927550964463       19.17345746798118       19.55585808958717
C           17.73702309880514       18.99087586987518       18.15034904995161
C           16.71652864930833       17.84310021326986       18.16509570709714
C           14.97274078473914       19.41280508505552       18.55756943239385
C           15.97148313885191       20.55872386301140       18.39781560281642
C           19.24916660964222       21.99447621861213       23.02791842053148
C           18.57043552112703       21.34878172050390       24.23190391203418
C           17.05912141754862       21.31509298261700       24.00628124995754
C           13.57167522429946       16.53321135070893       21.52361106249045
C           13.03549588642429       15.47247141589213       20.75205418375829
C           13.39832367978648       15.29035183176761       19.42132580480544
C           14.27043869683272       16.19440011322829       18.85207628280391
C           14.80773256562992       17.24945148223167       19.60358043665893
C           14.49275739733183       17.39521998461229       20.93900308866004
F           23.52104072389207       22.08255297129793       14.06348370850114
H            7.26759665623827       15.59688142616802       23.81336843333172
H            8.31133405699035       17.00170837476469       24.06448233423127
H            7.45804388145773       16.80985106485197       22.53117326417595
H            9.81124640590890       16.14478122219095       22.21239390571510
H            9.05903913701825       15.42520330079740       20.17160354772798
H            8.14868834674270       13.88834520785475       20.10279397060221
H            7.35788787463962       15.36243268192589       20.70958890730710
H            9.23591333585408       13.40287605305948       26.72165830719221
H           11.73194663021288       13.24791169843100       26.87028621781387
H           13.07576524234915       14.18343304150486       24.98290770865946
H           10.74099109038724       13.29681795398358       21.82658622127700
H           11.23412304491695       13.56851423899006       20.14873036495417
H           13.47546019218177       12.56853827429143       20.64856741537094
H           12.97512343861874       12.28559351629878       22.31844556474964
H           12.16783783375866       11.43059114159354       20.99941340424217
H           12.93371516825158       16.83349472665945       24.89522398182046
H           14.34561139493695       17.50019616883277       24.06269529987821
H           13.76305033102504       19.47106935389623       25.61015847020476
H           12.26382711958817       20.36400564529105       25.33420451756499
H           12.21271438935142       18.77265135681042       26.08992340998426
H           10.57801089351356       19.51775105772903       23.67912893167299
H           10.98186997515286       18.18498964525025       22.59681348141746
H           10.63291838802306       17.86228789566275       24.29471275719946
H           12.77183099900617       20.65702375282218       22.97416163437920
H           13.03341202600927       19.27464395589038       21.89845433944121
H           17.09089085058413       19.56549719945845       22.73093927849502
H           17.09706840912612       22.15786791113038       21.37339184660641
H           18.88888269758338       21.20131847653190       19.05658088656836
H           20.76796787540906       18.96491126041690       18.91435533095649
H           22.32835486858249       19.10070149940231       17.37520458397280
H           23.91189301523580       20.85359376113070       19.31190903400045
H           24.81445755572004       18.56482517816844       17.49640516905149
H           25.46718986336833       20.20342687353552       17.53267759032746
H           25.73860118003112       19.12232879012625       18.89593186950851
H           24.09914891160520       18.65553357072707       20.51720207193391
H           22.46927506228084       19.29051048274751       20.45497199385490
H           22.95840999524484       17.96398518666951       19.37940065695897
H           22.85728795665481       19.05477410187511       12.96488440515586
H           21.78725754681339       20.46211715010520       13.02865040713159
H           23.28012278255324       21.74424579427297       11.55623816123983
H           22.84873243821998       20.20868851477469       10.75763581305110
H           27.40931609330268       17.18650531207508        8.58907124437969
H           27.99498086007274       16.83692076761773        6.96139825610740
H           28.96075917671956       16.33587213282549        8.36345874041006
H           30.47885522137560       19.37992464219221        6.86173264616868
H           30.96419861418815       17.81189961764365        7.56175082479736
H           29.88882085423869       17.87917013524025        6.15500680795736
H           29.52794881802278       21.06173115959453        9.94306457645756
H           30.73825504982640       20.42680306188176        8.82780256185086
H           29.17628760197370       21.00548756698601        8.21318046957973
H           29.40120379556243       17.36443387336712       10.50216397929724
H           30.88114550160886       18.07598462809005        9.83627360917961
H           30.01576491792156       18.89079458828327       11.14266944913751
H           26.64870245160251       20.44280351539337       12.35332001082472
H           25.63143372699715       21.89958650188327       12.50458034403768
H           25.73475961333444       20.77380727167654       14.67045202766534
H           25.19961754510863       19.23950750089502       13.96239516842245
H           23.67041765703226       22.36729126629954       17.74866066198554
H           24.52309993802575       22.31842186967652       16.19502626992008
H           22.82620607522186       22.83954718623863       16.28223723580405
H           18.84801672421794       18.25341703908197       19.84094640317667
H           17.52995331734869       19.35750156280115       20.25562985238205
H           18.52871021896187       18.78854585635689       17.42127601250583
H           17.17927954721439       16.92631745293831       18.53387978299395
H           16.35633015273475       17.67792641729733       17.13395183895097
H           14.49359625353231       19.19669954760568       17.58398004687877
H           14.20077604344392       19.71431195442841       19.26721515900138
H           16.25861770958880       20.92754648610147       19.38838887140356
H           15.52527511185618       21.37531336599611       17.82863619801124
H           20.33516294960572       21.93736781420654       23.09799882348038
H           18.95055679790836       23.04599597966754       22.94352596373702
H           18.80434831967303       21.92252817750874       25.12653027508049
H           18.94861207915091       20.33384072826119       24.35969744825955
H           16.66461667807234       22.33350265277905       23.96747889544033
H           16.56025777082796       20.77999552692772       24.81313428761091
H           12.99967048213543       14.47635319071173       18.83523629932504
H           14.54276609633972       16.08962537835840       17.81157261139312
H           14.97696419115361       18.17356723805518       21.50139659034277
