151
 energy: -221.321394524720 gnorm: 0.003652471679 xtb: 6.7.1 (edcfbbe)
C            8.13383775896379       16.75164118878303       21.74227750387794
N            8.53866077055581       15.32031988511368       24.15076715413480
O            8.78148414758591       14.40821961467553       21.35370883218947
C            9.20800357832214       15.67101080687896       21.86425429070780
N           12.29683242569103       14.63640728405040       21.79048119604137
O           14.62829478551038       19.78869918384840       22.73577514392352
C            8.65761018020303       14.34677087725999       19.95039013940556
N           17.73881764750648       21.01842345212238       21.46102365079719
O           23.67404761228039       18.15393969416501        9.93282128624589
C            9.56321522223412       15.42328444535985       23.31796218544735
N           19.05028474140244       21.13053439511419       21.94009224781414
O           23.20975726206222       18.65843735725204       15.94292556999941
C            8.76411030358410       15.08821762776812       25.43152507219092
N           21.08859251104992       19.66874846068725       19.28491190699960
O           21.32682530334034       21.79179826557395       18.57914212207572
C           10.03630211461799       14.94283452026614       25.96239991847672
N           23.29088133264359       20.75777415627329       16.75615637088930
O           18.04275733236765       19.11084431799038       17.86841296464985
C           11.11352484949199       15.05225200603326       25.10168033335048
N           24.13297423976508       19.65143548881972       11.56926230144926
O           21.23097670594830       20.63831073521167       21.76256251902593
C           10.89372986207848       15.29605713476192       23.74648787733668
N           28.30304486489671       19.72005820873885        7.91062043815766
O           15.01665676975970       21.23965409894095       21.06959532711961
C           12.03569351499362       15.48451223276055       22.84586962927050
N           16.42339630756260       17.49349547027046       19.49804042683261
C           11.73298840483171       13.32105734304795       21.61457680756883
C           12.58363216313733       12.25764730779483       22.30731484151909
C           12.93987173996493       16.52317742780525       22.86372905599471
C           13.06417900520394       17.61122597980604       23.88306297933795
C           12.46657637437143       18.98966260572817       23.51883741542731
C           12.53305894217361       19.88270069801471       24.76111506243872
C           11.01448883474122       18.83415002155441       23.06992695608668
C           13.24380385134150       19.66214333704072       22.37954566048971
C           15.40259538020911       20.56286448733898       21.99649322182506
C           16.83769876992967       20.51637401574303       22.49641732743028
C           20.09457383808434       20.57286051431292       21.30609754346696
C           19.82412767486128       19.90607488978630       19.95161226320000
C           21.76732331239610       20.65414357602793       18.68254470571984
C           23.12477625019985       20.22617432754203       18.10785264706276
C           24.27852982918341       20.62548308284499       19.05335504000996
C           25.62362218974759       20.34020334182992       18.38826709455230
C           24.16397297485467       19.85455586313799       20.36664399143577
C           23.27904127841002       19.87588927088202       15.74973400105819
C           23.42593823680932       20.32124936296324       14.28215607084122
C           22.51905778223375       19.45684250317842       13.40088655819538
C           22.74063902495424       19.79842177381957       11.93098315673624
C           24.48356061871907       18.85360964493607       10.54642679063591
C           25.86727624906228       18.86684749088859       10.14250489257071
C           26.92764398401127       18.77788502158148        9.57713520333034
C           28.22699260782392       18.65034215652184        8.91574209220313
C           29.38705943479540       19.61061496437741        6.95768021309550
C           28.24725863359661       21.05514716225965        8.47120976626732
C           29.34368274522490       18.69125090982167        9.97842039900357
C           28.21520876160376       17.27155788240699        8.23646688065173
C           25.04232032756227       20.45913997488279       12.34498678457782
C           24.88729029935534       20.16326041981550       13.84188597962829
C           23.36788913090419       22.19710298253682       16.60322886397203
C           19.04200941854963       18.60010801894402       20.06289386603778
C           18.60031374037084       18.08734463670810       18.67858441622389
C           17.58767365497650       16.94160394246021       18.84046674743539
C           15.80860766536227       18.50854294293153       18.65573718627118
C           16.81807565453542       19.61847327272245       18.37648905240358
C           19.23836249611156       21.92214591015038       23.14823475996908
C           18.37542106065244       21.35352958597548       24.27069838032266
C           16.92114954125012       21.32035407514534       23.80873570308743
C           13.80073429138138       16.31255612605554       21.74754249970746
C           13.38116104024540       15.11844057518826       21.11121376643262
C           14.03643272842141       14.64286710458756       19.97999633633948
C           15.06247900419025       15.39706895683399       19.44855837266861
C           15.46168124539435       16.60067504488673       20.04706103535185
C           14.86639274824393       17.02869997763439       21.21616467742586
F           23.04417447267231       21.64801222268239       14.07569083733767
H            8.47397555046652       17.65510043292464       22.23852358641291
H            7.93723224184336       16.97938185157379       20.69816010687154
H            7.22293292941534       16.40391634714173       22.21921126481890
H           10.11049304201070       15.98497152450564       21.31427989081192
H            9.58665689534656       14.66546007049407       19.46243293570125
H            8.45900540199337       13.30256591390880       19.71767508916000
H            7.83032834485223       14.96183987735651       19.58614517815299
H            7.88122681830544       15.02158839170901       26.05245447891469
H           10.17626644189928       14.75207652624819       27.01396955537141
H           12.12477777009835       14.94056634891354       25.46453201196239
H           10.71936088863201       13.31427019020352       22.02095272516877
H           11.67422246526284       13.11202005876554       20.54313827511986
H           12.14782643773088       11.27568642295974       22.14989798707242
H           13.59599566511638       12.26306854587116       21.90822900101465
H           12.63207193788973       12.45192145388778       23.37663204041485
H           12.56921931832400       17.28321894653549       24.79856032777490
H           14.12468820329929       17.75294283583010       24.09926812518030
H           13.55696276252997       19.95851602512085       25.11791585032243
H           12.17139161280413       20.88238591489331       24.53177674066356
H           11.91766872486884       19.46921447416690       25.55563515783773
H           10.56049252389856       19.80648148792548       22.89353613902194
H           10.95975261207682       18.25333645250713       22.15274769026624
H           10.44197185181089       18.31771618558007       23.83774451971511
H           12.84349123462345       20.65930443430557       22.17068009194167
H           13.17737482301956       19.06724340255744       21.46314719032904
H           17.10434806850492       19.47387718366071       22.69990682986989
H           17.39971934597554       21.92563969333312       21.13419818370563
H           19.27278206632381       20.62605380813812       19.33635109738601
H           21.53902666067835       18.78132707073781       19.44952742674133
H           23.13607578503426       19.13779080834868       17.99146270806693
H           24.20248158124234       21.69298416323747       19.28147883462534
H           25.67259988839005       19.29923736257689       18.07403168056641
H           25.77520346853186       20.97009286259613       17.51653997315797
H           26.42982625714701       20.52883356146098       19.09228605168828
H           24.19854497265264       18.78297492799766       20.18450296513931
H           24.99533044678216       20.11655862285673       21.01572242194073
H           23.24261123807295       20.10098712086679       20.88858105484765
H           22.74643346888190       18.41023810146740       13.59966508628031
H           21.47792814887338       19.64231225222102       13.66726387837200
H           22.43849518303019       20.83622503165777       11.74946166201681
H           22.15566516038849       19.13630190001783       11.29042161204710
H           29.33282881327376       18.66281567892489        6.43051025147418
H           29.26592876806280       20.40937500187904        6.22679947310891
H           30.38385589866864       19.71561930916575        7.41320274743940
H           28.01169707900893       21.75329893261274        7.66802627884299
H           27.45460612643961       21.10481253827540        9.21494967155736
H           29.19565304888504       21.37072404200820        8.93213675102093
H           29.30280959853356       19.61452352721678       10.55044329049404
H           29.22735196143347       17.85464639068298       10.66155975426882
H           30.31474346055413       18.61409828025380        9.49545939352879
H           27.52994261209599       17.28124261142169        7.39314997510911
H           29.21012791764049       16.99706150896047        7.89786720519399
H           27.87427597516831       16.52320128115892        8.94786233701839
H           26.06463786948152       20.24976657781436       12.02696999209264
H           24.81801852318083       21.51736131185474       12.16633052174779
H           25.52042643181039       20.84638633854106       14.40845227856290
H           25.18612407085573       19.13863895875467       14.06306776530738
H           23.46766469359254       22.64239198556952       17.58639906974112
H           24.22302198360155       22.47788815117636       15.99059610412687
H           22.45695470146363       22.59335205022071       16.15488954863099
H           19.65945121106061       17.83985077323520       20.54068505113202
H           18.15096696337953       18.75907260311431       20.66532620862225
H           19.46687969941921       17.74584329008017       18.10335624648133
H           18.00705686995940       16.14926570315388       19.46118726820484
H           17.36074661795702       16.53642540900777       17.83882290030430
H           15.46139155912747       18.07191842861710       17.70173002315220
H           14.95043898724959       18.93687444111913       19.17595485533722
H           16.98992537258947       20.19003191407947       19.29506844784782
H           16.44175002794351       20.28773157266279       17.60283178252140
H           20.29919662519515       21.89144177585307       23.39393922855892
H           18.94760224481922       22.95646110705647       22.93279269627575
H           18.47862593333906       21.97095266309807       25.16142225922536
H           18.71207241111082       20.34299707111429       24.50627653760141
H           16.56254418141968       22.33730148158170       23.63051338186360
H           16.28387510646922       20.85352760127933       24.55816401917599
H           13.74057851302625       13.71993000846910       19.50440341839226
H           15.55907930644266       15.06054288183877       18.55062901661775
H           15.23317103997715       17.92277656924568       21.68565951124333
