151
 energy: -221.321229927731 gnorm: 0.007881467246 xtb: 6.7.1 (edcfbbe)
C            8.12752354009509       17.17819600252348       24.08976822384578
N            9.24665914077560       14.90755547752157       25.27480849137019
O            8.29586500303123       15.36401465976509       22.44076364209902
C            9.03388839710866       16.24973295972078       23.28080569666037
N           11.65888557051247       15.11225234397532       21.45100695833544
O           15.31735405806513       19.22687260545699       23.03863878730828
C            7.68462945558256       15.98233298862703       21.32984254876547
N           18.24540641823704       20.22097986547787       21.25868619663469
O           24.48023414136036       19.61420249974182        9.04725915271841
C            9.86143842173002       15.36699977038543       24.19446958725186
N           19.62259957094399       19.99774374798838       21.33628136423501
O           21.85348214740253       19.43268003286243       13.84956239538095
C            9.90469213060540       14.13078516228931       26.11754397922092
N           20.51825715060952       19.24036940359177       17.87917852847105
O           21.09547686985856       21.40743961704911       17.85445371353408
C           11.23249138966876       13.77561097620143       25.93949821820645
N           22.57534417802154       20.87969213421403       15.41588021517008
O           17.37102884097916       19.30721663453227       17.13577359935353
C           11.88195721721304       14.24817534375624       24.81384149462663
N           24.41728666966459       21.30737633580089       10.56210465895230
O           21.53588721872675       19.39391064997111       20.33960022300676
C           11.19588420340992       15.05224748048775       23.90347668173840
N           29.31333796333799       20.13567816583543       12.05843088662776
O           15.66997447667144       20.97355300278683       21.67799137368198
C           11.92819599364096       15.54419343667060       22.72995971109627
N           15.68196119287016       17.80735116069124       18.79072501588131
C           10.76201103976655       14.04651832572044       21.07926754888495
C           11.51505137620000       12.72864040483628       20.89596181412885
C           13.00823948266709       16.39997836630288       22.73036303352633
C           13.59170028634840       17.09004423462715       23.92134677660631
C           13.21980876860183       18.58430852193759       24.08436374725998
C           13.67926953140875       19.05138463955960       25.46808828649055
C           11.70890153711809       18.77522833094521       23.95426630831045
C           13.89912950128552       19.44962641150407       23.01750691521077
C           16.07396420274357       20.01638515037660       22.30237116971940
C           17.53218276820709       19.59279262660025       22.36354544940039
C           20.32534417677496       19.58141989520992       20.27295172522739
C           19.56119221334585       19.40491506086828       18.95314590509239
C           21.27408239476762       20.26141949795032       17.45629515443260
C           22.34554429316462       19.85764839638438       16.43592663064454
C           23.67126230261411       19.46272288713820       17.13302863098977
C           24.73807368326058       19.13828547805775       16.08593475912389
C           23.46585886207985       18.24589634442119       18.03150996590563
C           22.34594793517026       20.52598179782627       14.14480831212806
C           22.85377666840163       21.41506259614776       12.98130576773535
C           22.27641509449053       20.91125940696137       11.65460646751238
C           22.99284233430982       21.51441969660059       10.44257391581578
C           25.01945213597809       20.27645521574908        9.93597143141014
C           26.37180297738749       20.00583933174036       10.35000176864029
C           27.48100174767987       19.64399244090895       10.64643839968734
C           28.84100677433059       19.24051115435346       10.99372651707171
C           30.73014597549466       20.06245828964579       12.35053465345556
C           28.53970313933774       20.04629937473576       13.28187864177209
C           28.81191670654843       17.74660663170691       11.38275626277293
C           29.67940309972686       19.41788164296121        9.71742594137681
C           24.97517470447920       21.97330210734678       11.71313263440708
C           24.38685286587391       21.36677245695806       12.98917976359358
C           23.10079248341608       22.15151039333607       15.87434566644188
C           18.58884928575142       18.22811165549862       18.99352905224927
C           17.80444267874358       18.06898215550367       17.67670037222225
C           16.60224386050859       17.13359363170276       17.89831448035961
C           15.18565598798460       19.02484670455856       18.17498489470959
C           16.37136666117025       19.94714947221606       17.91389988728572
C           20.28701977820853       20.32736016329283       22.59081472507247
C           19.60420974587473       19.59876616552691       23.74364375141811
C           18.11878320157883       19.95034675434313       23.74251807913430
C           13.44752036945097       16.48342073045079       21.37711787920017
C           12.58028562046987       15.66736618215124       20.60961551358946
C           12.73318966959379       15.53956154589243       19.23169455033342
C           13.75757635057645       16.23103803041500       18.62379406547304
C           14.64090637392240       17.02214570883440       19.37402464122420
C           14.50196110809203       17.13469921216188       20.74040946284032
F           22.43997713087529       22.74931720209279       13.12495683229335
H            7.61502329874925       17.87789257188501       23.43519874968422
H            7.39839527004602       16.58181815105016       24.63000432010477
H            8.72382122474084       17.73964942267225       24.80163814755959
H            9.71141222916061       16.84678000864325       22.64972752106620
H            8.42058098887593       16.54759812015725       20.74622047533800
H            7.27795445127179       15.17373930453904       20.72651448734612
H            6.87457156902451       16.65090797924309       21.63303200038492
H            9.33621135673345       13.79086680339913       26.97224385587122
H           11.74096930197440       13.15104107100621       26.65512934277184
H           12.91496288201771       13.99580779572704       24.62393549896804
H           10.00008478500390       13.94446113004234       21.85383516542888
H           10.26644896774702       14.32489743438115       20.14627395197396
H           10.80824650902490       11.92635371890738       20.70047865206910
H           12.21240570602955       12.79883794295403       20.06032526635246
H           12.08048488853209       12.48763348280897       21.79691587561420
H           13.24135647280121       16.57472723909094       24.81545451540187
H           14.67823485995646       17.01573386304673       23.88299964401696
H           14.74703430780457       18.88974621117055       25.58784015334176
H           13.47249449588621       20.11073538169324       25.59833492369343
H           13.15402801271601       18.50296742369023       26.24469991728872
H           11.37482961459620       18.50704383938656       22.95544275261487
H           11.19498093955223       18.13985017045680       24.67222885222322
H           11.43400087713532       19.80988975123637       24.14212564553333
H           13.70849696432057       20.51273230872708       23.19636552354572
H           13.52983616482096       19.20090935669810       22.01767904889682
H           17.58825448890637       18.50670991847872       22.22720666473093
H           18.03252968660140       21.21941547620257       21.24060300940433
H           19.02439645004942       20.34061246090497       18.76365262331803
H           20.76193598663592       18.29593488670095       17.62151104624595
H           21.97080802887752       18.98591952374334       15.88820290418367
H           24.00274082660522       20.30121348280781       17.75247585255005
H           25.05822432507492       20.02004316066643       15.54209134478643
H           25.60637448890530       18.70896802514200       16.57508561184784
H           24.35072685624374       18.41522212558627       15.37063619992652
H           24.42337236831256       17.92345764316122       18.42903842180286
H           22.82253952694618       18.48345559453099       18.87298651622664
H           23.04159797544278       17.42241393009271       17.46204590846424
H           22.36730403395751       19.82509562101670       11.63847808290715
H           21.21732189944933       21.16305821116378       11.62032888665910
H           22.80029783124055       22.58977353574948       10.38549767098109
H           22.64450598583934       21.03119929698980        9.52816044120055
H           30.95516942392079       20.82660943681453       13.09325822598288
H           31.04150668196242       19.08899930183370       12.75908671082483
H           31.31076770027840       20.27782463844155       11.45933370289410
H           28.81976881633189       19.18455601604330       13.90462866361394
H           28.70862460199616       20.95317638961118       13.86194477313437
H           27.48050373414254       19.97787648584342       13.04382192331275
H           29.81336915376684       17.41238889394056       11.64431183507355
H           28.14742056701786       17.57714652911164       12.22637947526558
H           28.45509471427572       17.15867193253199       10.54173520251193
H           29.14554709305244       18.98304143548158        8.87547137033424
H           29.83603918900372       20.47459458346872        9.52025258456458
H           30.63711007182872       18.91470001311970        9.81454172509341
H           26.06029205752069       21.86912753160395       11.71261635242252
H           24.71208472266904       23.03312409368484       11.65343181630458
H           24.76960359127117       21.90700035010927       13.85155756644449
H           24.67935871732805       20.31759143760867       13.05891523072661
H           24.17580176544310       22.08871654085971       16.04974309006418
H           22.88774656506533       22.94313513754029       15.16698386130639
H           22.60517240173520       22.39522049766330       16.81298913404272
H           19.13657287414960       17.30572889138756       19.18870359725756
H           17.87198762631952       18.39390186333950       19.79507606527668
H           18.44944529619687       17.66107274838683       16.89226620391231
H           16.93033027446295       16.20400064753152       18.36755336141867
H           16.15444006855085       16.90019535399969       16.91443676109458
H           14.65947994893839       18.81870856451964       17.22329502369491
H           14.49238205199067       19.51511835934490       18.86042553559035
H           16.78094717464420       20.27927348803879       18.87463248004560
H           16.06800007932076       20.81487146356379       17.32763586335594
H           21.32883015132758       20.03189181452587       22.48256497573622
H           20.23336300529729       21.41138056441368       22.74148882218700
H           20.06682052180696       19.89406623437361       24.68386203090708
H           19.72947277677563       18.52247707364302       23.61727382604240
H           17.98935208121908       21.01982134685235       23.92407548973718
H           17.58636888291950       19.39929232499349       24.51578989930870
H           12.06312651400619       14.92637892709665       18.64785995978676
H           13.88629282950680       16.16458175586595       17.55276795678262
H           15.22055413043476       17.71932707534052       21.28584493525399
