151
 energy: -221.323014542545 gnorm: 0.009937243718 xtb: 6.7.1 (edcfbbe)
C            8.58071752052051       16.86568416842618       21.67639001092672
N            9.13905723088005       14.65918264720045       23.31507791118960
O            9.36713205890435       14.97704781352022       20.31013636677025
C            9.72078531329925       15.90897911059939       21.33004050273949
N           12.73166839891100       14.84981852816351       20.66107276539810
O           15.18143832617233       19.35720188540949       23.32763421560247
C            9.23973046969443       15.53787500508206       19.02102752581965
N           18.22242633581818       20.95342894438734       22.30410697832978
O           22.99314320552845       16.80954053526307       10.89929400726962
C           10.12457946300849       15.08015530024765       22.53687104037644
N           19.57060059635453       20.88501007011225       22.67092556286382
O           22.66325937720871       19.01011425822742       16.32465796239207
C            9.42427948493821       13.93515012621919       24.38318305394293
N           21.28467024880027       20.46624454374346       19.48131289477089
O           21.05361087249662       22.52968065251798       18.58753925437435
C           10.71608636871035       13.58579968479397       24.74187880248994
N           22.61401194310919       21.26055908581269       16.44513345185623
O           18.30927536597986       20.40864678939606       18.06771821120962
C           11.75304897447065       14.01899088896089       23.93527086559451
N           22.81139053825753       18.92032123358467       11.71082377216727
O           21.71672731882541       20.56110912247638       22.08219590125535
C           11.46892661045988       14.77818895433244       22.80182563723825
N           28.07407128215297       17.48706470251066       10.01902239650858
O           15.50762154720851       21.21928752836042       22.12501177616201
C           12.55529838465134       15.28674832026124       21.95736589365677
N           16.66516565783019       18.41168933328548       19.14482051357955
C           12.16471242155010       13.63530476936323       20.12801493898124
C           12.90880751134306       12.40664929761992       20.65129652620793
C           13.46131092449140       16.27746193422804       22.26210000584092
C           13.69328028969329       16.89526857834675       23.60475467121147
C           13.07794798739027       18.28675605793484       23.87464792171078
C           13.26325931558396       18.61103129506226       25.35983934711286
C           11.59017266744160       18.29064185557721       23.52785500286928
C           13.77312244979231       19.36730103752354       23.03994746090322
C           15.93225840781993       20.30094100515453       22.79158253980364
C           17.39598770513681       20.08985847887604       23.14160597746552
C           20.53235136609797       20.63293212784991       21.76761756427179
C           20.09962382995818       20.49814989369994       20.30595259493566
C           21.66357031737566       21.47256282871398       18.68587861118095
C           22.92669822188656       21.16781140757935       17.86957741210774
C           24.08909010348986       22.06777724525198       18.32266078738363
C           25.30106548143073       21.89191882595691       17.41114871678506
C           24.45242297418370       21.70363666987016       19.76231436960457
C           22.48255224425209       20.10369079598926       15.78438291447468
C           22.22138292236684       20.10870019769126       14.26562531267833
C           21.61678728484733       18.76842698777893       13.83414461239168
C           21.51862919916044       18.68456310707303       12.31198781576008
C           23.47011289896540       17.93286432147161       11.07735848364592
C           24.78465993520951       18.26577901234722       10.59375634845329
C           25.89457486199984       18.37812256142977       10.14104034980840
C           27.23259140990375       18.61970402778585        9.60718937246988
C           28.17402736018555       17.32920690359756       11.45672814515276
C           29.38347075579438       17.42400743883545        9.40537217995838
C           27.09179864477026       18.65861678890184        8.07699039509742
C           27.71572722280529       19.99550426639923       10.11337518499817
C           23.37151011552990       20.21139182571838       12.02529790168342
C           23.55190388605562       20.34673016574851       13.53961894145197
C           22.25301837205011       22.56012589493298       15.91481154878146
C           19.26534501307155       19.24593627944241       20.02300517117526
C           18.84521118254543       19.18320616241546       18.54410732578528
C           17.81510658092199       18.06296914499814       18.34218000248403
C           16.05459070305088       19.63020143462542       18.63936406782070
C           17.07949129380674       20.76123215268067       18.68968305492284
C           19.89404564694846       21.12326274054524       24.07174948257903
C           19.09556126712112       20.16944877786127       24.95673459185399
C           17.61031803183957       20.33257285849963       24.64724993078586
C           14.22122047749083       16.49009026682891       21.07418845231961
C           13.75322608698474       15.56460434580318       20.10556928077469
C           14.30623395868781       15.52194583774597       18.82927557313068
C           15.27845113892105       16.44335876665514       18.50377656954081
C           15.72418739923235       17.38576201272134       19.44067729569336
C           15.22893733261920       17.38376286602155       20.72844698331193
F           21.31266770819833       21.10337470322926       13.90041667239238
H            8.36169191968196       17.51895820707405       20.83650991680285
H            7.69775649514230       16.28870845239768       21.93103067336049
H            8.86790757475601       17.47381369423002       22.52846300385979
H           10.59544625973599       16.48539360727613       20.98335498154674
H            9.21191093181490       14.69936369784245       18.33156467015911
H            8.32202550749444       16.12033105649977       18.92200215624447
H           10.09804141577390       16.17592154891392       18.78883140586183
H            8.57111377159891       13.62851098589182       24.97301362398684
H           10.90292815567279       12.99368706105600       25.62315573317727
H           12.77961997332284       13.77000677644443       24.16153538463343
H           11.10890812739772       13.58383549303229       20.40689311721783
H           12.23181483366108       13.67899910844812       19.03843699022035
H           12.76973665372264       12.30851173072466       21.72503763825490
H           12.52998437985010       11.51116542489513       20.16934771385288
H           13.97329937000181       12.49343887525051       20.44201869641923
H           13.29163110348716       16.21824488282122       24.36055730088933
H           14.77193943903007       16.97338578733096       23.75741827209609
H           14.31701350388129       18.57780955989524       25.62394587320026
H           12.88175106033764       19.60457652075154       25.58304777584575
H           12.72746009914745       17.89194808748374       25.97278501595648
H           11.12605298677162       19.22028536227229       23.84108782122665
H           11.44502500091138       18.17170649809803       22.45733571591679
H           11.09175881137857       17.46732770726162       24.03272826571558
H           13.37539010874690       20.36070139518290       23.27126093542653
H           13.64195105057871       19.18498082886349       21.97084950754334
H           17.65989969760055       19.05044856619707       22.90820643096438
H           17.87953592897646       21.91477538790961       22.35854614708911
H           19.54095718592413       21.39640242782620       20.02148685244320
H           21.90904878444142       19.69237529319791       19.63483504896859
H           23.21495618350439       20.12519983011936       18.03010414274652
H           23.75983827019910       23.11187089582636       18.30712696884317
H           25.60443416564202       20.84890548901732       17.39154979210453
H           25.08172368652663       22.20978652089781       16.39574141657792
H           26.13017055586361       22.48569379831195       17.78623950638861
H           24.80648130487380       20.67624352115121       19.81566403567624
H           25.24115826343904       22.35814844702787       20.12343640369374
H           23.59519429257303       21.80307843231687       20.42521925839380
H           22.24555980944350       17.96943400780998       14.22556849196230
H           20.62438453097207       18.66809479354061       14.27661117064991
H           20.81739479965789       19.44036166575462       11.94533309945247
H           21.17723741037776       17.69391037403834       12.00733376649531
H           28.54620782827873       16.32642901173989       11.66647273341031
H           28.85753657279847       18.05422402244205       11.92402335043468
H           27.18737059044774       17.42920441250501       11.90671576889974
H           29.85696396879798       16.49830287474194        9.73108946898341
H           29.29335568455057       17.39143333267494        8.32302029303489
H           30.03951071352270       18.26144124978963        9.69022994422577
H           26.89604087079417       17.66029764613562        7.69860898280179
H           26.25803181126689       19.30103464698457        7.80690910626074
H           27.99280561820668       19.05478312701009        7.61891360518400
H           27.06907867873919       20.77496622491545        9.71934949234658
H           27.69145498036826       20.04029685500948       11.19905230694266
H           28.73080426099471       20.18098861287177        9.77115861368279
H           24.33231801909735       20.32354732621842       11.52310580106834
H           22.68334426797005       20.98483487068350       11.66926771348672
H           23.94325068500295       21.33517742831868       13.77507189683674
H           24.25549147646577       19.59558722894225       13.89813176444976
H           21.16940436199224       22.65147424826347       15.81921284499485
H           22.58862615712907       23.32240859957888       16.60896018232346
H           22.71322490274004       22.73139285622689       14.94445024624720
H           19.85117913203698       18.35621117476658       20.25336872543233
H           18.36775561873962       19.25403275989532       20.63510749259952
H           19.72094293260077       19.01120796045786       17.90641263446680
H           18.21616700808491       17.10698611066591       18.68142323202340
H           17.58356016394433       17.99612743346401       17.26380853310263
H           15.69406940866965       19.49303757642114       17.60558916749355
H           15.20812201857899       19.89698001217420       19.27407426049494
H           17.24794975631793       21.04694110601767       19.73418858173913
H           16.72147496047278       21.62877817524813       18.13451454169962
H           20.96809273142736       20.97610253312214       24.18107254976231
H           19.64481566340199       22.16216646719063       24.31571603302020
H           19.29592077076327       20.39329764789040       26.00319851412380
H           19.40467472721364       19.14299821750717       24.75560043451879
H           17.28512284955160       21.34439203377557       24.89995620202275
H           17.01225717853591       19.62226593369258       25.21583025714998
H           13.97422417454314       14.80104025039514       18.09734485888664
H           15.69724729642742       16.44647916330787       17.50769054536452
H           15.62985795138978       18.08821488076944       21.43503591441472
