151
 energy: -221.322736744656 gnorm: 0.009677017036 xtb: 6.7.1 (edcfbbe)
C            8.76359968872693       15.97360929781039       22.45013056431146
N           10.15012108422274       13.64202747634122       23.22774261521293
O            9.28087838052523       14.49951183454137       20.55401066108380
C            9.83713133405007       15.34821769610978       21.55931816808078
N           12.91490888859553       15.21761879269561       19.96835882444055
O           15.37377988010736       19.43218158516865       23.02318024528105
C            8.63877026139361       15.17703348748921       19.49578076756374
N           18.33444356609884       21.21486987077655       22.13817499640398
O           22.52041613509286       15.82614040163538       12.70600776426430
C           10.75498605078287       14.46131946441727       22.37766663320828
N           19.67423072104830       21.20972687214022       22.53732055991035
O           22.82857344846060       19.23497620967919       17.10773838676409
C           10.87254692219852       12.82032335248919       23.96596078053816
N           21.47957332104940       20.83350676065033       19.39493041138661
O           21.72101618096782       23.07998867853081       19.30521988145905
C           12.25759292423909       12.77340605775011       23.91440881393149
N           22.67494196055908       21.45390457726347       16.75048557034710
O           18.62646892446173       20.88947708173494       17.87223920400049
C           12.89767614842682       13.62830041380995       23.03823969790499
N           22.19821307050148       18.07220507561720       12.74751364669230
O           21.83912820029729       20.89133037501970       22.02211349592023
C           12.14688831695892       14.49059005565371       22.23511115030995
N           26.80180188199074       18.60723926305275       10.16317315504468
O           15.61150771896736       21.39398957325139       21.96562892184940
C           12.89525248918178       15.37974754975088       21.33715732333047
N           16.81930664371264       18.94684300168086       18.77142769858549
C           12.23849732176358       14.18231198642297       19.22709636330910
C           13.14567616840099       12.97527334382209       18.99044343026763
C           13.78291990081515       16.36144011756966       21.71551658671914
C           14.02608253517431       16.86784271418176       23.10002627174031
C           13.32248082290711       18.20475646343212       23.43857426691548
C           13.42543572700461       18.44564363365068       24.94722961013483
C           11.85050637507548       18.14691003994897       23.03175439380478
C           13.97625814130460       19.37431561324801       22.69568548326702
C           16.07212617076351       20.45845823878629       22.58123776847590
C           17.53427054427274       20.33276292701917       22.98118378296788
C           20.66370688359159       20.95443592021635       21.66809796761405
C           20.27463266828201       20.84106335516294       20.19103076526238
C           22.10413949216472       21.95374664180226       19.01983460507097
C           23.27609237258800       21.68047687860605       18.06780073172842
C           24.33196048227464       22.78998034468067       18.11841145983161
C           25.35046202480097       22.64723768706774       16.99265039099280
C           25.01800537994251       22.71036818285250       19.48232733766234
C           22.47675513866331       20.17819753748764       16.39389308989525
C           21.93849905104435       19.84151525921338       14.99104076305572
C           21.32284899314522       18.43869358023952       14.98555700184522
C           21.00795952993242       17.98197659441222       13.56096273468374
C           22.91401450450798       16.96830394328751       12.46373164641397
C           24.18163349792129       17.18859159919337       11.81936589345898
C           25.26196537851071       17.20997552950982       11.28889373048016
C           26.57465393058238       17.24001007720501       10.64941588804002
C           27.97581927557138       18.77106835250546        9.33057780490038
C           26.76788553341719       19.61803855804099       11.20334916656629
C           27.62529125677895       16.73807277427174       11.67610172434539
C           26.47970756027224       16.26007180885419        9.46684099976778
C           22.70040172079385       19.41961701774500       12.62865763132008
C           23.11598893003240       19.93506567661882       14.00894106639929
C           22.03533335724409       22.59037272041557       16.11479644439277
C           19.43343156498854       19.61869332184954       19.83100142807282
C           19.07514977927316       19.62365403884347       18.33246259554376
C           18.00619180904936       18.56069480581775       18.04096469742461
C           16.30532407821399       20.20355958849855       18.25684922656923
C           17.37853746434347       21.27589541585667       18.43220864325671
C           19.94751442924706       21.53440794834838       23.93071592178935
C           19.16899241407328       20.59642265990662       24.84766557080333
C           17.68704743041890       20.64414072343262       24.48292777410127
C           14.40910389645107       16.81355020431221       20.51928328448472
C           13.84390095545937       16.07484182725862       19.44854656980220
C           14.25510222922392       16.28586684660590       18.13630649746542
C           15.23206103214572       17.23031364135042       17.90042825346296
C           15.81771752183272       17.94532640372057       18.95349583232711
C           15.42243534216891       17.73014720967484       20.25564652744401
F           20.94316507115622       20.72723150760306       14.57840109257767
H            8.13572577510836       16.65373203969135       21.88221788265844
H            8.15523913050553       15.18056953172822       22.87540968621278
H            9.23532421127170       16.52833055443271       23.25550420715887
H           10.43079336047167       16.13694815761163       21.06972103598482
H            9.34594816313581       15.82496001457760       18.96376513405106
H            8.27509213560728       14.40143974982711       18.82484135818115
H            7.79458080639231       15.77279808438724       19.84942840664094
H           10.30897228161669       12.17785883492121       24.62824591562865
H           12.81487331853773       12.09153695416484       24.53593906010142
H           13.97457148045273       13.63680947838251       22.95218607700329
H           11.34985666270200       13.87453927217121       19.78308414512749
H           11.91792565920420       14.60066127793253       18.26799395873860
H           13.45402745814655       12.54472654522883       19.94320794119082
H           12.60821752831602       12.21972745863167       18.42168111516458
H           14.03759807912567       13.26825362176566       18.43700356926485
H           13.67056850186437       16.12046105599153       23.81134876689767
H           15.09853015920870       17.00188194101078       23.25016679839979
H           14.46568046632012       18.44052195952034       25.26420171888809
H           12.98882668624171       19.40700092335446       25.20757534140089
H           12.89118362938627       17.66910724205541       25.48814952348590
H           11.38843619840566       17.26844047022105       23.47302127192713
H           11.32200108738485       19.03231344467830       23.37639013485276
H           11.75097150632989       18.08224063154523       21.95056683938461
H           13.51205980841892       20.32556618091211       22.97035163710097
H           13.88219244333539       19.24840856880613       21.61407742715416
H           17.85944202707355       19.30273626251676       22.79739528315151
H           17.94484203232467       22.15912172505663       22.17529308065185
H           19.73761138436338       21.76117547737840       19.93140220197826
H           21.91660093331069       19.94476261787708       19.20262420541501
H           23.75245166849776       20.73512142157865       18.34513010688746
H           23.83235384906062       23.76220169672365       18.05324873094231
H           25.80346567226041       21.65775740752477       17.01827498156795
H           24.88805868413846       22.78945182006271       16.01990187264752
H           26.13459257569997       23.38982294980543       17.11378069609531
H           24.28126673882731       22.78334483090008       20.28083621671585
H           25.54731775305714       21.76589442186486       19.59018364034848
H           25.72830470241065       23.52374640991954       19.59487160703348
H           22.03120055792290       17.75481549524569       15.45379620291878
H           20.40992195257042       18.44862506800165       15.58497879783249
H           20.23506747334818       18.61959991150878       13.12405514631117
H           20.66923293004997       16.94456908455332       13.56368289623418
H           27.89286066601031       18.15340980880316        8.44107247192995
H           28.01975439134643       19.81268279903480        9.01635523967431
H           28.91414847385003       18.52867882349177        9.85031181741808
H           27.72038286691357       19.71936248905477       11.74365151160558
H           26.53912273795384       20.57795673646318       10.74039707332055
H           25.98746848324397       19.38007023407965       11.92142332873171
H           28.23687107942433       17.56645166231894       12.03080835359960
H           27.13779852336275       16.28971166242827       12.54155986256614
H           28.27661352520352       15.99373151785676       11.22378559878331
H           25.82892013767429       16.67116601603286        8.70041975121588
H           27.45966021577048       16.06223645393699        9.04404662193981
H           26.05804013195885       15.32184281848808        9.81808094704895
H           23.54348871958227       19.44128599671425       11.93917336137563
H           21.89623258365279       20.04656861718439       12.23575847635373
H           23.45372669444165       20.96836763366309       13.93533352209496
H           23.92934557583363       19.32663466546735       14.40704874819498
H           20.94878844878381       22.50845478326318       16.18488794585105
H           22.33901796892294       23.49091957914791       16.63803164781643
H           22.32135376972453       22.66864361794061       15.06781887219932
H           19.99633099724652       18.71072457469917       20.04882088480261
H           18.51243486646675       19.61978248333395       20.40882713553207
H           19.97254140563802       19.42766990414301       17.73489721968143
H           18.33982833782481       17.58116471445852       18.38107813059916
H           17.83782551635164       18.52531758087779       16.95031337962234
H           16.02529758772031       20.12175772956243       17.19137865967109
H           15.42452082173075       20.48889147938644       18.83416495890789
H           17.48982020765373       21.49398503446743       19.50054498929809
H           17.10089293796380       22.18911565502648       17.90414994621423
H           21.02326450327401       21.44382267985896       24.07511313139946
H           19.64847658697223       22.57444321712485       24.10620803679006
H           19.31611564384746       20.90240195109817       25.88316885570380
H           19.54673384932437       19.57906666643559       24.72995319661372
H           17.28247370180289       21.63872414753066       24.68834477914856
H           17.12260408354847       19.91407616036199       25.06152045125135
H           13.82523889280634       15.72840357340341       17.31844649467184
H           15.55849720439542       17.41462177761390       16.88752330094777
H           15.92128355908756       18.26699309573718       21.04321602371822
