151
 energy: -221.325153309675 gnorm: 0.009667399796 xtb: 6.7.1 (edcfbbe)
C            9.56576366636657       14.98636809867608       21.83109236663923
N           11.18069597472713       12.66239066121529       21.88580876856563
O           10.13980703569724       14.15865864720297       19.58477359414761
C           10.65235469277140       14.73428814481717       20.78535430646888
N           13.57570815319943       15.32214956004998       19.14271683552172
O           15.70127924104786       18.99366120026590       23.03695628380346
C            9.27870412994904       14.99931967862993       18.84692694867906
N           18.25811686289992       21.40270439149568       22.41325739336768
O           21.00123958673426       17.11091095717548       13.58530862716822
C           11.67535800318503       13.74544778931356       21.30232244597700
N           19.58043855773170       21.57565468757119       22.83458263679753
O           23.99753056295025       21.04898359961090       17.08970570264567
C           12.00321873665403       11.73717459211848       22.34541608627958
N           21.43039201452562       21.90064770572732       19.70234327577751
O           21.22769170558653       24.14861967495896       19.70422530505368
C           13.38279580416433       11.84735549031482       22.27121587948591
N           22.61040122912367       22.82025324916133       17.12713836869317
O           18.57342053876406       21.88679222259364       18.18762992448425
C           13.90866209246770       12.97686546953820       21.67169469200625
N           22.08270043515307       19.09221371435702       13.38052662240970
O           21.76587012485448       21.70804289662608       22.32131011492487
C           13.05298805741380       13.95123455816654       21.15530903300117
N           24.62608581390502       14.55164825843244       10.93444865859239
O           15.50917293365913       21.08785900933687       22.25040404891054
C           13.66190875615272       15.11735615482700       20.50275208343898
N           16.97635600452935       19.65682008297696       18.72375887537082
C           12.97930025564981       14.43337707140444       18.17712585427851
C           14.01010419037975       13.46483304309931       17.60082217268865
C           14.47816067665798       16.06672625587446       21.07721603722279
C           14.80198748564424       16.22742774442860       22.52822754543712
C           13.97538148113474       17.30621279217991       23.26787630669320
C           14.28673030846162       17.22237655930447       24.76453309413473
C           12.48181511137951       17.07206389647200       23.04700696567474
C           14.31984156059855       18.71280476456698       22.76427922981102
C           16.16478874349761       20.19028577436099       22.73551792303163
C           17.62295682550389       20.31321140066449       23.14721757666532
C           20.59800452857404       21.60954778693458       21.95778533808385
C           20.23199998355271       21.64420336566729       20.47058898992077
C           21.83275297747117       23.13508484610492       19.38345787158221
C           23.07260805799931       23.14772223535473       18.47748690097949
C           23.83180873373090       24.48131099815534       18.55502484027793
C           24.93031995631078       24.53826284221505       17.49651568369825
C           24.42678554962059       24.61591817052997       19.95530891476520
C           23.14993446650591       21.74892073452220       16.53140816146234
C           22.68036621257414       21.30187316817418       15.13049243818888
C           21.40008056579302       20.47196128860198       15.27410511723159
C           20.99149794180637       19.85898785940068       13.93286151110088
C           22.00901703042804       17.75235132332035       13.28742314078947
C           23.17828851101324       17.09555068489461       12.76448858430712
C           24.03564971279000       16.37637895327594       12.31563282523944
C           25.16644912573623       15.62200317240598       11.78306476285558
C           25.60576846510003       13.62698195023600       10.40492684589137
C           23.74895146394910       15.02137069952174        9.88056964653938
C           26.10596544324274       16.60745606949607       11.05549515750219
C           25.89701989983794       15.01855079406703       12.99483671251578
C           23.27244840099058       19.87157429252713       13.13795657838408
C           23.78039457382244       20.48384713027474       14.44660045538133
C           21.49556034873821       23.60892748274922       16.63412862035430
C           19.53771122081644       20.40075084290695       19.91455843050617
C           19.15536128190125       20.61471647447073       18.43675346258590
C           18.19806333066834       19.51282679288264       17.96388658384910
C           16.33637923483100       20.92389615300785       18.42130061968548
C           17.30077238021143       22.04746892113635       18.79768872361998
C           19.80217962959346       21.78608519370525       24.25988098127804
C           19.16153742911091       20.66248364002956       25.07102913572259
C           17.69399906794105       20.52388154845529       24.67325667563338
C           14.94865995760347       16.88493825176571       20.01031186397999
C           14.36282847209546       16.39090490191375       18.81940714711686
C           14.62091005609994       16.97942949269276       17.58491853541176
C           15.47424966807718       18.05996246499214       17.54720087834800
C           16.08827752972726       18.53832772545418       18.71433870970912
C           15.84110027107072       17.95233501548357       19.93580104396888
F           22.42219890796848       22.39967658893785       14.29901210214154
H           10.02711203316767       15.27098688661633       22.77111521771204
H            8.90389087436333       15.78572056250594       21.51278970095906
H            8.99784265919173       14.07313115273483       21.97765423856217
H           11.15370718276022       15.68370697983750       20.53237198907118
H            9.74717533088289       15.97463669659914       18.67041022217493
H            9.11277300062183       14.49357256342399       17.89849074881883
H            8.32154406958333       15.14153689462937       19.35461559469455
H           11.52389282939101       10.87737940301209       22.79211731899798
H           14.02545222084661       11.07607619154140       22.66235115723138
H           14.97608864961727       13.11171035908513       21.58154675281201
H           12.17104881198006       13.87956855096800       18.65558720661795
H           12.55279730503098       15.04169460674107       17.37665401429570
H           13.53160226921115       12.79911149384276       16.88859054763834
H           14.80510565967059       14.00953948906679       17.09468421544869
H           14.45269901470056       12.86779995174672       18.39587548311329
H           14.62558350306482       15.27678817085319       23.03371040021562
H           15.85818622544356       16.48103994943084       22.62958378847518
H           13.97119582858492       16.26153469319127       25.16107032747049
H           15.35273410632263       17.34001772116980       24.93829127398143
H           13.76061994461197       18.00633425436859       25.30399487777159
H           11.89253609832550       17.74459373230716       23.66550226614043
H           12.21550008812699       17.23660231554019       22.00675956293022
H           12.23052267516645       16.04716170819529       23.31152800554341
H           13.70662665889730       19.46632538169669       23.26894565783033
H           14.15141879049090       18.80285073314329       21.68786407850699
H           18.14550545577396       19.38580347642342       22.88861572111681
H           17.71640934398258       22.26019606272509       22.54192593641413
H           19.58989786871286       22.52297567503623       20.33115170228434
H           22.05165361952450       21.12050450849851       19.55268764880361
H           23.75170490751047       22.34180139895903       18.77411594491057
H           23.12542725490795       25.30233814082596       18.40051890033815
H           25.51442761990983       25.44713282557552       17.61645730385369
H           25.59345607675212       23.68037362022308       17.60084073861510
H           24.50930410891810       24.52564331054827       16.49427108703560
H           24.94075614214249       25.56840967918382       20.05215586284811
H           23.64409483266486       24.56744124428763       20.70980392402955
H           25.13848547468353       23.81497313777782       20.14543645376246
H           21.60145806387897       19.67777385466024       15.99510113738710
H           20.58737547626812       21.09538516474061       15.64377174507376
H           20.72612758234648       20.65515165001046       13.22948387880869
H           20.13773524766108       19.19065606256247       14.06644215346164
H           25.06572008477481       12.81408473161104        9.92026941489209
H           26.27526068844448       14.08124938680019        9.65911244670416
H           26.19879004688331       13.20400231900761       11.21065216346845
H           23.03313492892602       15.73098370185268       10.28873573024912
H           24.28948419876991       15.49721928647292        9.04756958521336
H           23.20014164666541       14.16648583120081        9.48535852901418
H           26.96837346785245       16.07505953785241       10.66312759900697
H           25.58965370983190       17.10274882072865       10.23648655865171
H           26.45253871818615       17.36372533900103       11.75484150560131
H           25.31219315809474       14.20084849467342       13.40644239669305
H           26.88020176815230       14.65789190042048       12.70847257001559
H           26.02044055156073       15.77888863978318       13.76150507715627
H           24.04148341797634       19.23513245821685       12.70171946662827
H           23.02305240005378       20.67306872197799       12.43516351242032
H           24.62945954660386       21.13779821367792       14.24012013951426
H           24.10512857812427       19.70636938415947       15.13821410831209
H           21.43920590815776       24.52166223694736       17.22038512416033
H           21.62308646458426       23.87654766975135       15.59098289042605
H           20.55189621059732       23.07331886381062       16.76886504915847
H           20.21082735817793       19.54361179553969       19.97512538615378
H           18.63586695162183       20.19126551649221       20.48556926651541
H           20.06141728462596       20.61205350573836       17.82385074239943
H           18.62539968975982       18.52859480770578       18.14936216720394
H           18.03838321508360       19.62969245055865       16.87512454352877
H           16.05797003321625       21.00790161980002       17.35272356911646
H           15.43270020868443       21.01163631743513       19.02964661604987
H           17.39746382755129       22.07161971134132       19.88920853415587
H           16.93398067555107       23.01164970066320       18.44328049780215
H           20.88066684332816       21.82983495685231       24.41216119514802
H           19.35990353343429       22.75026431714959       24.53591528294077
H           19.25000707734881       20.89130377151043       26.13249026672797
H           19.68375965371728       19.72543259583698       24.87304955559155
H           17.14302878124914       21.43363834457331       24.93349042854048
H           17.23067195177279       19.67990383562101       25.18448474624579
H           14.17038951264535       16.60539754909439       16.67825431444627
H           15.68527451554022       18.54006300351688       16.60177583393196
H           16.35605974636071       18.32400175453386       20.80539782599043
