151
 energy: -221.319964520413 gnorm: 0.004524363149 xtb: 6.7.1 (edcfbbe)
C            8.16027678509201       17.82596610834367       23.43183346051416
N            8.64216805345554       15.29911210136312       24.57440384470627
O            8.29043681177768       16.09191795719270       21.69220566197127
C            9.01455913077651       16.78364310231190       22.70777920590140
N           11.70291237312547       15.19938387456261       21.30937723638553
O           15.39144528064852       19.16731888329659       23.23592125255017
C            7.94226603787535       16.89389065123086       20.58409793288020
N           18.45643323891096       20.25650288915667       21.83493670289124
O           25.06044670966268       17.20445215372346       10.02024789701311
C            9.51617114641205       15.73187145681199       23.67691522691145
N           19.83033731312533       20.09617919197432       22.04013032210496
O           23.00396424038411       18.22669160767564       15.08895147664001
C            9.01477356376807       14.38522589899939       25.45182526305590
N           20.95443716147989       19.23599636942279       18.69789493800011
O           20.48839265261298       21.26331485380080       17.84652656705059
C           10.29843098777863       13.86409548680089       25.50588689109042
N           22.08861631956899       20.24206792312171       15.51702923120900
O           18.17874988799134       18.78859745708667       17.59205085388387
C           11.21742133894235       14.31149329544511       24.57440313951270
N           23.94582858076998       19.05683753174323       10.70932449999284
O           21.82660421793557       19.45141183082928       21.23063870213080
C           10.83186873100752       15.25358349169325       23.62117342430202
N           29.68297539621783       19.28174167110949       10.71357035139336
O           15.87687101996955       21.06531518124920       22.14754803878870
C           11.80805532073371       15.66363391176606       22.60171238452084
N           16.23611403695864       17.53059962488432       19.17788013262743
C           10.72896293856295       14.25193173963245       20.82828223102595
C           11.20587384706583       12.81380562921888       21.02132843692877
C           12.94753631840148       16.42307103743933       22.74650679929242
C           13.43902115675847       17.08325482745242       23.99619246922121
C           13.17912759906279       18.60417583446188       24.11636364622957
C           13.58579300362407       19.06051592357850       25.51996773490139
C           11.70113790659116       18.91541120338614       23.88711134934329
C           13.97916331873567       19.39695357837658       23.07751701899507
C           16.21677874944601       20.04211661743050       22.70118282935955
C           17.67089642355129       19.64065765843975       22.89956664298589
C           20.62097894482849       19.61370586021117       21.07052487337668
C           19.94382888780957       19.32786580873853       19.72757065209014
C           21.17118874194986       20.24560841652172       17.84578690088448
C           22.38833913248502       20.06693204636835       16.93588274091346
C           23.48271426851892       21.05331550394068       17.41433054234921
C           24.65015398944038       21.09305683623042       16.43172364293383
C           23.97827998748896       20.62913086513300       18.79538056049527
C           22.50009021392615       19.27744837746590       14.68404641221739
C           22.49005686465116       19.50598289962919       13.15739832589417
C           22.45012131831900       18.16406909643148       12.42019596216547
C           22.70624325510146       18.34428667456391       10.92234449285738
C           25.06024906934535       18.39254411235146       10.34629428508624
C           26.28067756114105       19.15906770868362       10.32472998363784
C           27.39505559277033       19.61428176520800       10.27076352932751
C           28.70892816066792       20.25440007457406       10.20350160537653
C           29.45583193684383       18.89175041603066       12.09119350658122
C           31.07517751004341       19.60881054397743       10.49286053061867
C           28.96899932032866       20.54871919033193        8.71763654483006
C           28.65974029441870       21.58000178665995       10.99165477227980
C           23.94517990602248       20.38002228093992       11.28158225519340
C           23.76134723503052       20.29011333173042       12.79946077806760
C           21.42017819883604       21.46148559849247       15.10573530461740
C           19.07546167027855       18.06844990738993       19.78448201885136
C           18.51878380112311       17.67432112558548       18.40182342125774
C           17.30250346667236       16.75044426670526       18.58151454624390
C           15.85019052904266       18.60736406548235       18.28090098920899
C           17.05916946478330       19.51313958250010       18.07111492715966
C           20.36170665981236       20.53559818016530       23.32157299324185
C           19.62190076278935       19.82791504107512       24.45296639981361
C           18.12160870096190       20.07838531631589       24.30667551780434
C           13.59352855253922       16.41446695534784       21.47403623893726
C           12.78830296922549       15.63334011083902       20.60646420711139
C           13.14917626698255       15.41768991535162       19.28035276708332
C           14.29786687920767       16.01670252192587       18.81470994395871
C           15.09913677844534       16.80279992777581       19.65596683113824
C           14.77062399150771       16.97716339914997       20.98317868681704
F           21.37730763043800       20.23992481891149       12.73379240085696
H            8.02122798691198       18.70835346559906       22.81440189994396
H            7.19560816359848       17.38945099192863       23.67245356433597
H            8.64902130420272       18.11974293464330       24.35521950912640
H            9.88305617217019       17.27133273719217       22.23626730735725
H            8.82380844892037       17.40893319373667       20.18590437193461
H            7.54634492190933       16.21195656147290       19.83552010300097
H            7.17923994619380       17.63146100617052       20.84394916426997
H            8.24642403100578       14.06498294975555       26.14235769471117
H           10.56473241113817       13.12723176594971       26.24606879501419
H           12.22888944746533       13.93185394497432       24.56483110317138
H            9.78732756428943       14.41209063846917       21.35784292193949
H           10.55937742757880       14.45084159099275       19.76744870492194
H           11.31717644712488       12.59161248713806       22.07928529357434
H           10.48219484915686       12.12585172812608       20.59507594407344
H           12.16474527550698       12.66509744719397       20.53074605063332
H           12.95579985723968       16.60326116467340       24.84957290771221
H           14.51571466031323       16.92236777356938       24.07448612115735
H           13.44067564101392       20.13325809885747       25.62538480917922
H           12.97999157767178       18.55777668518962       26.26882618675091
H           14.63181003170239       18.83273944227534       25.70689461192160
H           11.49791858180995       19.96836270987785       24.06483399727727
H           11.42038343125536       18.68156911051136       22.86460157047271
H           11.08866173379194       18.32378875086284       24.56012931674787
H           13.79065825656781       20.47004507069529       23.17819294136622
H           13.70541855545904       19.09179198135535       22.06338888721795
H           17.76094437640469       18.55325950772792       22.80916310088812
H           18.21284402078940       21.24765564335258       21.77553786882398
H           19.33502325970706       20.19884989790507       19.46847741440858
H           21.59258450430379       18.45640290799342       18.74719248478067
H           22.77059705198012       19.04624756401098       17.02869531615160
H           23.03632552157384       22.05013952755311       17.48929398577766
H           24.99471973478011       20.08359462392758       16.21687163711902
H           24.36302863096122       21.56730896984022       15.49856225806262
H           25.47260617308530       21.65680882895225       16.86200324121931
H           23.17259117576896       20.60567366404320       19.52505814644884
H           24.42299610722441       19.63756697758616       18.74794091210446
H           24.73360187840348       21.32633503953677       19.14695398040188
H           23.20791869814702       17.51404355246505       12.85823630456974
H           21.47348354903699       17.70480023013333       12.57578753709850
H           21.89221615319565       18.91747792010841       10.46975969131459
H           22.78375828682642       17.37075822379924       10.43598131014655
H           28.38866446886251       18.76937192380359       12.26648831030811
H           29.94124611670752       17.92995307561997       12.26149970646322
H           29.85859867309384       19.61437948227734       12.81609352039262
H           31.67321505256386       18.78680085454589       10.88351370236667
H           31.27746262632966       19.69566234984436        9.42889309211102
H           31.39595693215995       20.53203813965070       10.99962377057419
H           29.13987995100660       19.61868688228507        8.18278466106668
H           28.10028422713428       21.04178225057775        8.28888798970955
H           29.82930497708305       21.20140776043624        8.60183318973160
H           28.35009108624687       21.40805943530115       12.01936738196969
H           29.64156306506701       22.04649297536618       10.99029885281969
H           27.95242883197982       22.25882136563089       10.52355033341800
H           24.88545049139261       20.87913492651003       11.04657152584545
H           23.11360569725126       20.94267035785857       10.84737735851555
H           23.70629266363552       21.29585483190164       13.21349145542976
H           24.60839991160924       19.76765005914458       13.24562508434955
H           21.21679050261137       22.05280323774809       15.99200343233209
H           22.02961921681323       22.04119372146165       14.41448172697337
H           20.46637350731426       21.23363687107599       14.63234955210647
H           19.66113783812206       17.23344236856404       20.16980676339972
H           18.23595549354527       18.25812180745045       20.45077122226180
H           19.29032044976324       17.16106444052557       17.81831170412859
H           17.55656179456081       15.92653529558905       19.24934960339550
H           17.02396153773616       16.33803702194759       17.59523978480356
H           15.50202657538948       18.22402896110763       17.30469784247642
H           15.04428663772903       19.17999463687804       18.74317460014629
H           17.29322510335349       20.01339911406225       19.01773710360886
H           16.85921106038512       20.26616342901273       17.30742958825772
H           21.42730724467577       20.30909419543948       23.32491846268485
H           20.22206861291352       21.61967845765079       23.40009324942920
H           19.97546881282748       20.20796293359144       25.41054370381270
H           19.82698334823185       18.75755514205373       24.40661441323931
H           17.90980888011060       21.14234136498923       24.43434350475870
H           17.56202144413416       19.51947421604009       25.05498404032373
H           12.54628374856515       14.80832710805465       18.62453809283229
H           14.59086367594664       15.88315010158692       17.78326159279854
H           15.43049378429771       17.54964871081328       21.61196022580914
