151
 energy: -221.325817647495 gnorm: 0.006705439220 xtb: 6.7.1 (edcfbbe)
C            8.62321760242522       16.84322717940543       21.51652804367498
N            9.32187353033576       14.53406985819290       22.99574611993201
O            9.23211985553032       14.94924358178711       20.07235324604647
C            9.71287809196643       15.88400937579732       21.03843782564597
N           12.81002059392369       15.06935796002175       20.21885786705667
O           15.29331116765544       19.44721487777504       22.97698551604725
C            9.00466211237675       15.48922541771790       18.78949947576635
N           18.38449224273246       21.01365417055328       22.17493616061048
O           24.85098098730725       15.26149682341796       13.29195569564229
C           10.24035291604833       15.05358462761972       22.19392801345960
N           19.70409955293117       20.94851827354770       22.63538163642726
O           24.19379324856613       19.23050590375328       17.46821216512004
C            9.70015501177640       13.79040667835139       24.01909883371929
N           21.54227848312776       20.60507494248226       19.51963054003858
O           21.48416197640523       22.85496440411461       19.35526498381909
C           11.02878631836050       13.52516271111615       24.31446037104894
N           22.74562690513098       20.88572947853043       16.99176543266604
O           18.78225101292144       20.36927420068680       17.96651312720388
C           11.99439166103473       14.06334717595293       23.48454943274867
N           23.41234323645659       17.00700084771417       13.46578438592811
O           21.87298089200095       20.58023189423712       22.17780453315001
C           11.61174427999653       14.84041529107964       22.39119327624011
N           26.14794208870150       18.94491955895243        9.10568913058041
O           15.66684272557296       21.39865979248736       21.93694294797166
C           12.64895050795330       15.43012013922756       21.53880524494225
N           16.96978650599550       18.47422172053656       18.94802784295690
C           12.18907887879779       13.93550062033526       19.58000293996746
C           13.00280997170455       12.66113591706410       19.79713852686557
C           13.57469930057773       16.38491489466254       21.89437187116346
C           13.76477529147303       16.99765232040581       23.24565967934412
C           13.15900111091957       18.40474634831216       23.45630252974519
C           13.28314263682644       18.76889178852180       24.93855306911775
C           11.68890356771499       18.41912727585686       23.04110032004380
C           13.90207613787648       19.45525813250218       22.62279535195080
C           16.05664348679855       20.43916233783995       22.56490771704014
C           17.49112963518808       20.23649578241800       23.02535090296339
C           20.71160682808746       20.66477802325076       21.79771065973438
C           20.34319515491329       20.51433747778974       20.31966818879112
C           22.01660485541754       21.78532228523754       19.09713624689287
C           23.21690426503124       21.63679809763586       18.15550210696098
C           23.85300032263808       22.99007591831931       17.80086183815286
C           24.78152977335379       22.85875318288541       16.59662428268535
C           24.61863243964609       23.50035395575730       19.02022027514373
C           23.26807900140872       19.67125267643930       16.78579770308366
C           22.76804431612297       18.81169849203952       15.60989166447215
C           23.10538533628064       17.33864431886835       15.86075104168947
C           22.75962473075776       16.48031255117761       14.64271791051321
C           24.47998688391618       16.38126774989005       12.93629238830182
C           25.18475148977154       17.10550030708559       11.91050510798034
C           25.91243771996279       17.63212830464807       11.10779405739754
C           26.85552299902788       18.30975601429722       10.22492113984724
C           26.97873142306790       19.81348682192055        8.29531749421792
C           24.91216943747337       19.60896869093307        9.46307047168910
C           27.63902308251414       19.29628387343211       11.12107310881540
C           27.80061792164565       17.22345948352791        9.68268983008211
C           23.02637405217869       18.36043968270308       13.15230753634099
C           23.41010390446310       19.29338654330365       14.30346504778243
C           21.60386300845166       21.45687027557316       16.30374529151242
C           19.59285913769800       19.22246284337402       19.99769646641599
C           19.23523443752045       19.13445408348912       18.49985081819337
C           18.17538369533942       18.04490603505313       18.27510367672424
C           16.46504178210928       19.69380140436164       18.34097715974226
C           17.52646011399813       20.78053525979688       18.48512041885697
C           19.94433374701503       21.31619298793264       24.02382343792159
C           19.05784252132677       20.48450425724822       24.94627061719849
C           17.60126597974559       20.62877825778853       24.51123150254653
C           14.35619142508976       16.62958753155219       20.72725681581375
C           13.85746425481961       15.78190842798756       19.70576897849914
C           14.41800401550414       15.78032330735403       18.43259095432392
C           15.45412145209656       16.65192629313115       18.17292708095858
C           15.95233654767839       17.50074585152234       19.17133978771522
C           15.42784817684862       17.47119943686080       20.44649281368138
F           21.37417503674214       18.90020637197350       15.50040763417331
H            7.79660159899626       16.26655145963165       21.92038480465265
H            9.02237177759165       17.49021332995211       22.29097423398811
H            8.26993056086924       17.45938315413666       20.69464758566508
H           10.54268603030743       16.45525172423708       20.59137475546756
H            9.90988255301387       15.97349826788610       18.40391699533579
H            8.74095077891313       14.64545797565550       18.15722736897408
H            8.18480576101737       16.21143837144799       18.78963292864487
H            8.89781198228718       13.39729372422028       24.62834356894016
H           11.29496471400578       12.91713316760117       25.16341358083280
H           13.04419966966392       13.87973201826017       23.66232726768709
H           11.18287319089217       13.80674474090802       19.98416041695386
H           12.10640956037193       14.14837264886904       18.51110750164506
H           14.01134993064277       12.78330475609940       19.40900700208303
H           13.06419667169242       12.43000075064674       20.85818026032211
H           12.52653596609175       11.82971065777840       19.28683979111103
H           13.31236795133576       16.33958776146381       23.98919163932756
H           14.83535404547895       17.06087276424582       23.44899774018758
H           14.31894371623128       18.69929027604507       25.26035876195347
H           12.93366950988610       19.78418823347571       25.10934007256476
H           12.68466262274683       18.09389014494243       25.54373402705369
H           11.24277446310784       19.38910002383516       23.24414944836478
H           11.58930554663751       18.20696407577065       21.98011356596880
H           11.14303601441854       17.66080205077067       23.59698156176015
H           13.50048493361230       20.45747278770835       22.80313363403308
H           13.81656336335303       19.23656252474244       21.55431922754793
H           17.75032977109398       19.17834158156404       22.91405004269871
H           18.05811007746024       21.98052060309776       22.14062860204014
H           19.73680421550377       21.38459404359638       20.04823169912746
H           22.11511912697527       19.77844262034464       19.43720560834424
H           23.97708181533242       21.01074739462614       18.63715818357544
H           23.05540538207561       23.70687391972731       17.58268282263175
H           25.49703292058242       22.05643333644356       16.76384761598472
H           24.22314194855808       22.64176405486633       15.69038547656102
H           25.32898043418662       23.78580493322525       16.45206857673191
H           24.99420072315598       24.50326382031173       18.83662770903592
H           23.96357988510920       23.53122401834625       19.88871343952232
H           25.45891699377847       22.84632898620687       19.24256402997566
H           24.16959407589086       17.26894482543187       16.08734591476386
H           22.54932848764884       16.98695472600900       16.73056049662430
H           21.67779971615846       16.48295597214416       14.47935710373651
H           23.10402571189290       15.45594651196371       14.79338343226023
H           27.90651657715118       19.31652512338786        8.04322331578471
H           26.44389435340441       20.02046635040256        7.36846394894823
H           27.20460507145173       20.77282316565870        8.78214510404601
H           24.23757362993462       18.89128527647414        9.92566867718613
H           25.05151446797922       20.46202426449921       10.14499017622460
H           24.44859374747725       19.97708467710785        8.54914193542004
H           28.50804829603656       19.67644133377738       10.59232020700103
H           27.00702405736686       20.12953270704586       11.41708854734844
H           27.97420711108952       18.78530344840354       12.01896474658538
H           28.14490383222940       16.59793357391814       10.50238621645541
H           27.26848091355037       16.60395203715346        8.96664315143214
H           28.66627996270091       17.66433208772523        9.19825429219793
H           23.51525663650477       18.67793983464844       12.23034032512975
H           21.94078803249275       18.38399406807522       13.01272813346732
H           23.09193902288318       20.30869255637664       14.07056887302571
H           24.49234585964411       19.28923657005434       14.44434479622932
H           21.63485828341243       22.53461554784190       16.43383249339637
H           21.62505047770633       21.23035708028150       15.24307627684306
H           20.66482548987416       21.08910897044261       16.72413117979666
H           20.20996076384721       18.36294318525822       20.25894202803286
H           18.67140739020214       19.19039928766789       20.57489750172757
H           20.12798820209367       18.90538201789825       17.90884283417514
H           18.50910453249346       17.10116723907473       18.70800462280932
H           18.03776468730365       17.91425709751434       17.18749393076306
H           16.22393049047287       19.54385813013907       17.27274229790638
H           15.56061356997558       20.00606516217083       18.86637410899180
H           17.61505630737260       21.04957207871137       19.54431068087951
H           17.25433893768425       21.66635760189869       17.90970116367486
H           21.00348701111701       21.14979186081965       24.21941240713884
H           19.72108376263271       22.38269403908678       24.14315182373814
H           19.18424361367646       20.82645370609695       25.97232213350060
H           19.35751677574991       19.43722727435835       24.88923841695533
H           17.27455876713218       21.66423024117576       24.63346224097326
H           16.95369427843070       19.98715148571551       25.10693671734821
H           14.04805906421313       15.12664349497153       17.65696556891113
H           15.88821814500717       16.68521162249702       17.18422791076316
H           15.86315988439171       18.10519368429058       21.19868540901320
