151
 energy: -221.323470818335 gnorm: 0.004077254097 xtb: 6.7.1 (edcfbbe)
C            8.33773545104560       16.98851185835093       23.18205149373602
N            9.11948241233360       14.47348066805674       24.24155032591741
O            8.39323830951728       15.19905037096981       21.50601636252177
C            9.18810036941551       15.99951573243697       22.38303475114545
N           12.02091844438229       15.08723552353926       20.87828325421388
O           15.20768109817598       19.23582960441001       23.22456521617436
C            7.98660308282418       15.85061349787902       20.32166086564220
N           18.01309560396437       20.92390443185488       21.85929963243413
O           23.75760288177243       17.65921867634672        9.90665275065273
C            9.89034357201681       15.03557941383077       23.32127451010274
N           19.37585559604847       21.04835983876602       22.14705464109098
O           22.62629370245271       18.78971011989395       15.54296588614145
C            9.64705021883140       13.62191507396566       25.10199175338146
N           20.99631628773179       19.99936329599962       19.04347206542022
O           20.96857772500513       22.10028486614406       18.23991314644685
C           10.99218361333978       13.28585955605793       25.10665965279334
N           22.58716052458440       20.97774019261616       16.08714535261030
O           18.29286123210054       19.47976404382394       17.63573983405775
C           11.80522244065413       13.86659106973858       24.15085671401202
N           23.46102580808295       19.58928144534483       11.06543472172373
O           21.51391577765179       20.75615288460477       21.52891111159292
C           11.26128619650926       14.75641562684358       23.22400670555936
N           28.86465659894095       17.95048263354377       10.51077695627200
O           15.25947133408826       21.14334510838040       22.04808796148795
C           12.15439973813422       15.35244082713391       22.22482809150378
N           16.27923381555274       18.08494706397445       19.00295243914000
C           11.18339763804510       14.05956972574148       20.30959368709672
C           11.88757455173141       12.70370759816294       20.32806809850683
C           13.23641136505670       16.17456942140818       22.44563929178299
C           13.72950145884785       16.70942668837133       23.75133525050669
C           13.23464389409402       18.12850620580127       24.11489469833321
C           13.71372368406496       18.46437486921376       25.52921140096882
C           11.70908068790817       18.18863969264102       24.06289444672225
C           13.77680864925945       19.17430364023040       23.13355647673397
C           15.81712350124943       20.25522931574987       22.65439952383619
C           17.31075180726495       20.21883197317874       22.92594423891645
C           20.31722870328034       20.66770587669948       21.27008635183059
C           19.84158558015454       20.18266118668157       19.89506886949367
C           21.48492539956457       20.99081937529919       18.28995250405814
C           22.74248638997441       20.62203650810937       17.49520851799153
C           23.99017346478296       21.26697519035890       18.13718713919696
C           25.20952652194292       21.08458528938964       17.23613165877751
C           24.24237175480828       20.63061294808898       19.50279908724827
C           22.53967389643597       19.97217088016632       15.20446885444871
C           22.51034526130934       20.27871768088253       13.69424026972120
C           21.94604407407564       19.08907603045037       12.91258874239824
C           22.08491493242929       19.30511018536394       11.40336361103418
C           24.21404528301057       18.68874918120503       10.40789179186243
C           25.62000956902062       18.99567711138915       10.33030685858423
C           26.81976748161261       19.07834705187350       10.26482278582555
C           28.26894752382203       19.27139618021356       10.26876773222927
C           30.27453206879425       17.94796189542674       10.83966575256956
C           28.57247641867955       16.98351302762787        9.47161146527831
C           28.68451676234517       19.92845723723542        8.93653240117689
C           28.57963100801085       20.23064560011256       11.42869124808352
C           23.98568578348848       20.76432776149432       11.71674769400271
C           23.94223383407526       20.58384163228009       13.23538431411550
C           22.38649812409630       22.37656779396950       15.76485939860526
C           19.00162262169693       18.90590652872329       19.93358358325877
C           18.63366191927614       18.42002712090946       18.51723287085856
C           17.49122623340848       17.39513056611198       18.60372087815022
C           15.92420329571290       19.08198285416556       18.00993072237832
C           17.05873456046696       20.10094188243398       17.95253399913582
C           19.72589361328596       21.67318279374744       23.41507835504803
C           19.05768546116744       20.92304533281286       24.56382140102090
C           17.55369169053875       20.84960188511322       24.31176233321686
C           13.81495185455701       16.42356744979379       21.16600144249393
C           13.03282638506723       15.72251313277403       20.21472883607742
C           13.33592451917646       15.77378568428817       18.85828584190816
C           14.40784317123547       16.54234566781007       18.46196537614316
C           15.19551199059106       17.23730876486611       19.39255517079028
C           14.91836088821571       17.16116272455104       20.74060932216495
F           21.69529828075375       21.37945742731746       13.40637693394107
H            8.97424188724499       17.56873641616846       23.84219718523375
H            7.81137852062783       17.66825062620637       22.51748160395466
H            7.61724148235657       16.43146893738370       23.77314451805425
H            9.93770657355444       16.54065942831400       21.78492846139056
H            7.28911126939929       15.17120715767980       19.83403855309663
H            7.48314525101340       16.79994129823517       20.52817763923403
H            8.84720673357405       16.03627553610417       19.66536509887692
H            8.95593644537942       13.19824106169273       25.81769575160788
H           11.38603390422908       12.59062900418046       25.83004780549128
H           12.85792754635122       13.62947815046409       24.10032052719787
H           10.25121157608553       14.00059329965959       20.87543348717990
H           10.94763743922913       14.34283385109821       19.28120146123566
H           12.06247013673674       12.38448479340696       21.35300656018782
H           11.27136200335605       11.96003827630485       19.83185751863589
H           12.84466458997025       12.76935142327422       19.81513051258268
H           13.41225599554275       16.03923500101646       24.55202985942493
H           14.82026252447754       16.72847057992429       23.72810102332247
H           13.26524695215556       17.78381034218324       26.24787338442280
H           14.79468596782757       18.37676384282566       25.59393799601475
H           13.43061791130476       19.48019055546651       25.79462266978210
H           11.35901283987629       18.03548779143651       23.04579773928443
H           11.28615165005359       17.41216349401725       24.69535264108237
H           11.35192190853760       19.15510004221986       24.41013952827448
H           13.37393978476375       20.16684509688029       23.36091109323890
H           13.50546877740296       18.92273672068016       22.10390363997162
H           17.65321164957032       19.17936805939603       22.93361406945400
H           17.58349653706743       21.84044761602798       21.72271004469466
H           19.26665629760824       21.00382188708579       19.45201739846830
H           21.50403672971505       19.13286515650458       19.13553950963493
H           22.87041905749453       19.53545272927260       17.50427777134898
H           23.80154722381968       22.33460389579087       18.28680300564707
H           25.09462497385978       21.62429542043056       16.30106584093736
H           26.09677831698960       21.45659541375138       17.74026301474645
H           25.35359753512377       20.03017601638508       17.01083984727770
H           25.12488719376723       21.07345281255877       19.95696928334338
H           23.40187904689391       20.78665755363070       20.17543694674533
H           24.41273952622566       19.56143578061737       19.39643367027568
H           22.48276400385821       18.19309908972641       13.22379066843789
H           20.89365144876178       18.96402037401025       13.16923198754847
H           21.46290897533704       20.14991100966936       11.09315841294904
H           21.77711722804313       18.40871480054559       10.86261832909619
H           30.91462962824718       18.33827116947746       10.03463583797199
H           30.44797203811450       18.52047065493415       11.74603784665343
H           30.56673153276919       16.91662675230515       11.03167425696553
H           28.78476435785305       15.98705042078906        9.85899876168942
H           27.51588503875125       17.03132642512938        9.21234119701059
H           29.17175532562911       17.13188565008003        8.56064788375237
H           28.34902695145407       19.33813071120399        8.09000440751843
H           28.24327113781391       20.91654512429988        8.86036989773846
H           29.76515238801552       20.02553977841053        8.89408253789848
H           27.93493819309633       21.10288449353141       11.35557526891516
H           28.39326850320731       19.73597309087096       12.37761064398873
H           29.61226947859305       20.56304169178001       11.38565264818473
H           25.00941932153330       20.93789205389600       11.38648875799302
H           23.36128205557434       21.61858106172415       11.43627002920501
H           24.31337856956642       21.48625654734755       13.71846227993859
H           24.57063876598792       19.74273547013766       13.53043515653294
H           22.61935392019046       22.96815510902380       16.64317979012960
H           23.02348489608694       22.69013158789694       14.94110972985746
H           21.34545547809895       22.56758666360085       15.50272040695416
H           19.55602817955252       18.11391323940131       20.43657313718350
H           18.08111688790331       19.10495937249994       20.47793643161172
H           19.50269095081792       17.95980939864650       18.03500514183637
H           17.72983702542421       16.63829809548261       19.35176016305652
H           17.37986806021699       16.90042362406995       17.62185712051356
H           15.78058324810665       18.64600316345572       17.00558722312568
H           15.00263022460081       19.57630183902919       18.32058167600216
H           17.12025718731157       20.61965803013660       18.91659551967158
H           16.89276054105295       20.82971845785557       17.15774774812820
H           20.81229892290942       21.65248519509825       23.49669652323710
H           19.38645703139014       22.71490648697138       23.39277900250830
H           19.25911722601869       21.44087768913884       25.50021726936100
H           19.47094123767767       19.91583085324794       24.62716292520790
H           17.12238260785877       21.85369670116936       24.32529103746677
H           17.06159501432227       20.25039813279105       25.07663517198921
H           12.75140582125015       15.23654067332473       18.12688242440995
H           14.65262430589284       16.60795399739099       17.41186093148370
H           15.55333813838968       17.67869925683735       21.43991173061125
