151
 energy: -221.322298927750 gnorm: 0.008195273941 xtb: 6.7.1 (edcfbbe)
C            8.03355811253910       16.60495665802512       22.86062762736508
N            9.08432036703135       14.54339918261167       24.48043615370355
O            8.68315242881557       14.65944737573094       21.52192411330557
C            9.16659804301953       15.70618668062667       22.36404903858498
N           12.22019209258259       14.80808095594201       21.31857404503235
O           14.89352113614260       19.65514887868190       22.84258345507635
C            8.41017892079308       15.05838722355431       20.19842938295909
N           17.91133707161610       20.91652056852657       21.40740895956112
O           23.10992498621316       18.63078499328281        9.86297745344219
C            9.86741685259359       15.03793916741520       23.53155712293931
N           19.25065074541471       21.00012034577172       21.80111081194642
O           22.69020828009272       19.09520798768828       15.40578519333040
C            9.62931664347446       13.95265400629567       25.52941611755939
N           21.05603350011047       19.69187637784058       18.92448489278212
O           21.34520705459888       21.88246573104012       18.49784807909334
C           10.99889461355978       13.84201835960917       25.71204762577330
N           23.13887340985777       21.03964221948834       16.45183430839086
O           18.07214405703511       19.31636549829305       17.54565442272049
C           11.82462919095268       14.35574114429896       24.72848408965162
N           23.63259396728818       20.38519652450105       11.20262049706027
O           21.40369649795612       20.49634009518403       21.41934260338852
C           11.26410326736451       14.95190088851707       23.59863239872731
N           28.63033632241718       19.38187259156912        9.27404503682023
O           15.17213179090277       21.15517073128974       21.19887362537136
C           12.16577390739270       15.43315457615775       22.54629947817452
N           16.29568240788432       17.76661272684215       19.05307629411261
C           11.60648422735797       13.54556204338539       20.98413568555447
C           12.52596292238454       12.37969671486538       21.34565426338470
C           13.10003176980571       16.44169949600047       22.61528597008486
C           13.37809488007407       17.33198196467668       23.78520641598320
C           12.80848468885184       18.76935389605867       23.71025203444867
C           13.06663620899442       19.46331306726193       25.05136933793565
C           11.30651217867931       18.73490265283210       23.43123519498463
C           13.48143031110785       19.58136868915094       22.59696064200786
C           15.61704650223442       20.45149485242315       22.07835720707961
C           17.07821582446070       20.40798224352880       22.49145058522550
C           20.23332622389210       20.46801388060478       21.05827292910829
C           19.84363419393560       19.90575866734443       19.68508951975782
C           21.74833244085140       20.72814345477021       18.43444055577112
C           23.05174368663223       20.33717425667627       17.73117247573889
C           24.28208719091738       20.55486822674704       18.63354673972837
C           25.56524551592420       20.34525417927778       17.83135532023239
C           24.22836497615755       19.57823783207464       19.80840096679290
C           22.89101233601313       20.31183976426541       15.35786549283974
C           22.98718941641808       20.93256192244600       13.95197665745150
C           22.00887674621351       20.22639085600076       13.00929656201694
C           22.25697281755110       20.64383916353876       11.55965627925781
C           23.95156843220969       19.33108445093609       10.42837101410694
C           25.35918255892814       19.06957372223584       10.26152217680933
C           26.48897798368096       18.71604132352555       10.03989592327163
C           27.86454721759481       18.26313874083304        9.83758254530545
C           29.94970690560353       19.04929309119971        8.77787187635797
C           28.69280169296570       20.54102877786223       10.14302648351058
C           28.39367325809229       17.74758188499518       11.19425763838509
C           27.79712763761916       17.09665753231302        8.83927940800453
C           24.57551044424902       21.13482069423101       11.99495756317166
C           24.43619067242659       20.76102067147715       13.47330200029734
C           23.28674864797034       22.48008042767392       16.47886371133354
C           19.01062215461095       18.62907349877506       19.72559669795285
C           18.54009790165624       18.21851417273569       18.31523662893748
C           17.44272921483962       17.14598033340838       18.42497368325612
C           15.77426086175693       18.82698726112813       18.20981905703186
C           16.86571886714820       19.87958821731321       18.03681146878647
C           19.54697217963652       21.75248317403562       23.01277725165485
C           18.71830747873040       21.22472904776920       24.18050010728582
C           17.24267741250063       21.22048064311091       23.79063504794099
C           13.78801974323456       16.42755881236361       21.36499367556265
C           13.21526844681800       15.39198332739724       20.58653051122242
C           13.66662924924863       15.11333616082575       19.30068081957879
C           14.68583806683219       15.88562502171741       18.78775228567476
C           15.27470143211008       16.90341187369175       19.55189102419548
C           14.84920626031357       17.15925905958618       20.83723599511491
F           22.66547260665006       22.29197832953838       13.92915307856210
H            8.43645643971962       17.38731971891325       23.49525750397639
H            7.51615895075782       17.06482540683871       22.02352425065439
H            7.33256893900371       16.00265334063137       23.43037833341188
H            9.90263067031921       16.30084802594393       21.79946820716633
H            7.97938497495400       14.18791029818074       19.70655579156017
H            7.69669121465521       15.88645528906704       20.15833393047801
H            9.33340818855835       15.35732610415607       19.68479189576508
H            8.92908956198712       13.55381730481120       26.25031707294623
H           11.40579532266229       13.35932399133918       26.58665371334500
H           12.89996091214553       14.28947791928622       24.80873442221144
H           10.65661141998251       13.45833740501125       21.51432323797884
H           11.40479718510769       13.54367970575705       19.91201092525146
H           12.04442504392279       11.43747709266717       21.10036547591629
H           13.46263010000692       12.45307591858417       20.79643214151142
H           12.74817490308419       12.39170387305285       22.41109794663963
H           12.95468591517331       16.86676473939833       24.67616233094597
H           14.45874979549534       17.40809505248775       23.91539662175110
H           14.12957278512477       19.46888077829298       25.27585982779411
H           12.71412271608579       20.49165897401330       25.01943804156182
H           12.54443572143918       18.94609108336863       25.85104288682601
H           10.89007515401768       19.73948929249337       23.46258059617641
H           11.10906048587646       18.31023116069113       22.45129266870314
H           10.80425142174222       18.12740045421416       24.18022088784448
H           13.08162670731393       20.60027121196793       22.55993670671050
H           13.32172450245103       19.11692501151439       21.61914438586843
H           17.36537489741363       19.36790565911679       22.68001761905814
H           17.55957111306496       21.82877624681409       21.11015132753381
H           19.28779409742626       20.69646255886557       19.16856024239234
H           21.48447587976912       18.78362895700456       18.98013175086361
H           23.00331775254651       19.27564799419741       17.46879921202702
H           24.26203132161330       21.57079493944910       19.03850466212976
H           25.54748002297190       19.37080412174519       17.34860055226547
H           25.68277998227757       21.10745826425081       17.06676953126940
H           26.42418096032591       20.38867648303543       18.49568707917127
H           23.34260476244778       19.74899799350450       20.41386384333390
H           24.23004300441124       18.55169839855185       19.44847221822643
H           25.09996883815153       19.71961001890627       20.44144845297244
H           22.14526063711196       19.15169419405180       13.12598511606663
H           20.98913744466189       20.47830566063094       13.30169331004243
H           22.05940921884702       21.71409323638267       11.44287629588393
H           21.61158837855902       20.07572834901748       10.88787777223904
H           29.88410462466165       18.28153660331472        8.01327527704927
H           30.36505407660043       19.94619787831913        8.32181993994941
H           30.64294735607516       18.71638769749438        9.56541828626746
H           29.01646957115922       21.39539315188897        9.54981825065328
H           27.70158468905482       20.75038965333628       10.53750063768451
H           29.39446804869721       20.41449359004320       10.98030155593653
H           28.26840430346453       18.49499812543851       11.97342015940494
H           27.84925267865739       16.85175070350599       11.48281003862995
H           29.45019010372186       17.50047967582629       11.10491694528009
H           27.57491140762975       17.47366852407304        7.84503620505101
H           28.73472929853189       16.54811627459573        8.82424034295939
H           27.00284640974628       16.41508242258473        9.13576306128805
H           25.58844500112082       20.92458417295246       11.65234961402504
H           24.36237251112602       22.19983691948820       11.86468285479034
H           25.09911233219457       21.38334894520627       14.07440044557112
H           24.70378223440076       19.71349607387064       13.61838846884162
H           23.56920323099396       22.77600556619856       17.48238450305136
H           24.05141430208032       22.80760034587620       15.77753934929255
H           22.34477216404858       22.97330695220922       16.24066762604505
H           19.59746573277357       17.81426166040546       20.14826078051750
H           18.12993032506812       18.79398125382375       20.34248957107853
H           19.38012537407399       17.83709013520136       17.72674860411428
H           17.78422070958515       16.31959371517728       19.04979119682472
H           17.22324989131970       16.76647359444971       17.41137736615553
H           15.45949094451873       18.44349491157222       17.22125352653797
H           14.91359510407645       19.28467115676908       18.70056835364038
H           17.03243876392032       20.37162231414634       19.00158604062385
H           16.57439259789922       20.62246359003322       17.29336473558744
H           20.61636553036505       21.64794398902816       23.19738280140826
H           19.31730383492877       22.80925642831376       22.82918555742355
H           18.87804007526578       21.85900329008262       25.05025302877861
H           19.03949882367915       20.21125701497104       24.42364635857876
H           16.89879699695486       22.24326070665773       23.61698554273895
H           16.63413739909122       20.77809390038840       24.57790953702525
H           13.23224796474364       14.32148959132614       18.71035303755620
H           15.03952723639126       15.70445617108374       17.78297416303473
H           15.35441995463761       17.91679450882686       21.40990111255497
