151
 energy: -221.325330110963 gnorm: 0.006509257164 xtb: 6.7.1 (edcfbbe)
C            8.38507147839996       16.31591020489800       21.79891027674827
N            9.25393813752835       14.32250984675034       23.57448617458056
O            9.37577332557591       14.44237091308822       20.56112169859024
C            9.63486217126366       15.49146481369894       21.49461459338746
N           12.85535071605981       14.69200180849758       20.93125117037199
O           14.88082235106017       19.72024967805942       22.89137967204107
C            9.29232850884082       14.86397504723657       19.21783778101423
N           17.96377632669466       21.23187392415033       21.90813520189805
O           22.77852075847114       17.23082968159851       10.77740782411358
C           10.16184719130978       14.83292903653826       22.75568032946362
N           19.25258385772112       21.36695313846125       22.43579290909285
O           22.26175928155016       19.05497504744478       16.49396882236264
C            9.64421729603813       13.74374157267627       24.69544426403797
N           21.37384874718369       20.37712290398277       19.62514021697528
O           21.39481397183810       22.44879915417425       18.74006313249349
C           10.97282409228508       13.65977361906289       25.08355513256938
N           22.96352598662019       21.18174026119518       16.69463733685392
O           18.58204506228450       19.91358393585351       17.97931911814207
C           11.92820606564718       14.18506814494170       24.23326939231799
N           22.86430698498789       19.24634065984086       11.81900849261217
O           21.47489857309677       21.15767956738155       22.17252940182486
C           11.53479620713420       14.77295603994148       23.03173273036477
N           27.62558963884734       17.63935110109164        8.90457989765459
O           15.28298268450797       21.35074357191074       21.40727633827764
C           12.56326818673137       15.30519996612962       22.12982158231872
N           16.86387507253257       18.08855583281427       19.23404655825803
C           12.35474790153299       13.40865336859870       20.50485883538098
C           13.19656533057112       12.26788601734418       21.07332349628902
C           13.38300082845596       16.39287643270902       22.32695522809534
C           13.42843282043911       17.28493465012174       23.52706642664482
C           12.74669847862125       18.66704479345820       23.39229309871780
C           12.69693468482109       19.31845342554131       24.77692925990008
C           11.33042068169173       18.51275889197473       22.84186365531898
C           13.52397978695518       19.58558556752698       22.44107888293670
C           15.65270493959368       20.59819307331832       22.28074746976571
C           17.06401419029012       20.56954890769481       22.84630444240113
C           20.33983325376665       21.02129773864895       21.72823117583998
C           20.10446731517147       20.51140436785217       20.30211663542048
C           21.90266317654964       21.34024951980706       18.86781967510563
C           23.17684670261514       20.92982078703890       18.12110674022944
C           24.42027305986703       21.62170920112269       18.70266028268275
C           25.68066920214924       21.16676716467507       17.97061442214518
C           24.52775619117828       21.27855543854229       20.18842919484223
C           22.48467896396109       20.15363424833352       15.97942603747766
C           22.33146969715498       20.28173387576890       14.44878946644688
C           21.58057197449092       19.07370922716888       13.88671375441048
C           21.52797607738452       19.13584770465592       12.35891999110961
C           23.40567056452361       18.24051469095825       11.11034233324627
C           24.79609392254124       18.39340469091031       10.76814689179077
C           25.95272729566773       18.34798003279183       10.43439643201176
C           27.37971227308741       18.40773803988218       10.13009175022119
C           29.01603291364334       17.51313725333357        8.52234554629551
C           26.82639834280886       18.05881380813421        7.77210070607508
C           27.78425357196139       19.89522287749516       10.04858340212192
C           28.08722171258689       17.74345439982696       11.32487043932154
C           23.58291387206019       20.41214587298875       12.26927065679850
C           23.71197892619125       20.40677064428536       13.79557788029355
C           23.09863761745687       22.55378553387317       16.24708142213264
C           19.35819896345644       19.18279157265383       20.20400849259697
C           19.08949176918618       18.81940612244615       18.72886976197605
C           18.11001397042129       17.63926595024311       18.65264964917790
C           16.30101426300011       19.16534331460392       18.43672892239802
C           17.29133782621080       20.32599338729623       18.40346104613386
C           19.36337403826649       22.02340672875705       23.73157043699137
C           18.49742010085414       21.29239981970613       24.75342613581932
C           17.06080302549534       21.22632779203852       24.23978130358897
C           14.23732160175547       16.45293695925991       21.18658352174796
C           13.89043476706697       15.36488923441166       20.34646037379424
C           14.57280125284954       15.12675641797935       19.15765470592930
C           15.56780204835517       16.00612307477357       18.78750636845609
C           15.90323549550893       17.10178700214205       19.59483543148638
C           15.26763205990728       17.30430960539802       20.80215923248227
F           21.56922961920775       21.41356700939486       14.11666197289035
H            8.01805123709607       16.80142688427250       20.89907603053529
H            7.61818891237235       15.65960208893992       22.19760451412386
H            8.62205052650598       17.07806474244745       22.53445209825552
H           10.42219426058970       16.13922026156291       21.07776338436873
H            8.43802681155731       15.52630773357248       19.04982416727704
H           10.21193357784851       15.38077019815979       18.91421720949107
H            9.16756421227146       13.95779382305438       18.62960276443777
H            8.85122505452299       13.33850225656998       25.30910830621578
H           11.24726856872510       13.19401607428764       26.01584207261928
H           12.97919676667937       14.13698460077612       24.47894994850629
H           11.31711210463742       13.30730492159643       20.82979920202402
H           12.37576438800367       13.38218550110077       19.41306855767001
H           14.23824115786674       12.38663250568568       20.78419110147192
H           13.13491983522760       12.25946541969173       22.15903058609200
H           12.83161905558942       11.31706627510220       20.69681831137715
H           12.94354954347292       16.76627140386463       24.35583015194295
H           14.47375806644952       17.45326062716101       23.79111830539119
H           12.24186025592366       20.30424099638159       24.71624556946802
H           12.10897792986994       18.71100141258125       25.45946254750798
H           13.70043674746041       19.42408408671208       25.17990404748315
H           10.76755881807260       17.81749109178052       23.45928018329569
H           10.81495279790441       19.46951259017031       22.83377489994975
H           11.35726384284430       18.12808729787746       21.82589459465565
H           13.06898423957559       20.58009425762292       22.40127842324535
H           13.53608182794951       19.17470229962762       21.42718274711003
H           17.38356832333249       19.52652277593343       22.94435211662351
H           17.57696781952109       22.14338699867010       21.65808675573474
H           19.55397276564339       21.29554979113751       19.76888742318422
H           21.87428350829995       19.51288040036417       19.76196382021415
H           23.30721385331509       19.84671257015172       18.21320635178258
H           24.30521345423623       22.70383441335262       18.60909772598033
H           25.65299889230930       21.43846643066692       16.92018757874500
H           26.55433273882844       21.62760922849424       18.42247233857488
H           25.78427127054173       20.08674961230904       18.03984780968535
H           23.63604357824524       21.58244601780772       20.73375071070279
H           24.66317699452336       20.20821087583718       20.32464718334163
H           25.38200350481297       21.78949891857324       20.62389382948410
H           22.08783603640842       18.16735875628160       14.21573252836928
H           20.56970099557673       19.06528150928611       14.29638465373262
H           20.94461726867546       20.00639998650595       12.04381270696809
H           21.07453057209332       18.22926112758334       11.95581935157215
H           29.60740992594396       17.15168382667162        9.35701624832833
H           29.07458822522720       16.77650266656150        7.72144301417925
H           29.45093017735856       18.45322351326270        8.14982235720832
H           26.88661116316849       17.28585713083488        7.00580808624095
H           25.78593701221516       18.16346500281533        8.07417242091434
H           27.16811975640426       19.00648492023721        7.32780844771999
H           27.56716871361271       20.38493371484740       10.99383272042517
H           28.84888625463129       19.98075039503146        9.84799744409981
H           27.23019562530146       20.40068905900458        9.26123425331760
H           27.66808500971150       18.12553809886034       12.25218111569209
H           27.93342547295343       16.66890037980055       11.28824002518552
H           29.15113067564197       17.96050033675035       11.31520761836930
H           24.56952558978044       20.42941572566007       11.80566635644042
H           23.02253691647581       21.30141106648131       11.96213323628953
H           24.19648789658490       21.32654413794102       14.11734216759950
H           24.31031157265054       19.55424073772637       14.11975285985617
H           22.78687245121576       23.20478846086105       17.06239666632900
H           24.13342482554544       22.77651647719568       15.98311364643972
H           22.45242520747810       22.76367774866474       15.40413166989300
H           19.95473313860277       18.39032556112073       20.65512383765694
H           18.40458761486418       19.25013070070868       20.72060506962938
H           20.02573753696356       18.56752664498106       18.21751505053475
H           18.48915787638358       16.79344628848749       19.22617529318450
H           18.00725431534928       17.34190763758168       17.59419716732618
H           16.08616694149107       18.82818697966441       17.40602102463275
H           15.37082349763699       19.50495769650869       18.89646785246382
H           17.33970798228443       20.78213704027258       19.39911810073532
H           16.97929666818046       21.07912878226045       17.67851346194615
H           20.41676370411646       22.01365723672426       24.00967444131128
H           19.02904414583848       23.06180782142274       23.62529613556979
H           18.53613410665496       21.81920760434638       25.70552931437215
H           18.88432511425834       20.28304756092735       24.89750049009738
H           16.64431289753843       22.23331186326091       24.16361105402516
H           16.43465258563396       20.64108140670602       24.91191099235057
H           14.33181035443499       14.28394265392505       18.52819478895542
H           16.09900131025441       15.85086876577087       17.85972467955013
H           15.59274487668801       18.12045388369145       21.42178024661854
