151
 energy: -221.322046999576 gnorm: 0.009392098521 xtb: 6.7.1 (edcfbbe)
C            7.94102253339188       16.94816899034987       23.11131294290789
N            8.85707945401924       14.69267675992461       24.53145701312246
O            8.28090862912849       15.02179758847940       21.64540201615197
C            8.93846158953802       15.96936428844759       22.49292842235474
N           11.88090792390382       14.99848053461116       21.23412486363879
O           14.83781529970434       19.53205007266006       23.17709743244340
C            7.96193599601992       15.50541988335224       20.35987648920297
N           17.73881397922874       21.00039903167297       21.73437962043901
O           24.71565135305296       17.57642841215618        9.97025599055714
C            9.63995439350723       15.17331970504596       23.57612091287227
N           19.09016420733627       21.10182610564504       22.07371258944868
O           23.27008999358062       18.35740332544366       15.95893963366930
C            9.38505977093979       13.98510167094511       25.51402801820348
N           20.84707691343948       19.73919506576456       19.17129605372649
O           21.09405111287862       21.83464256049372       18.39491575057641
C           10.74344281514665       13.73121420243129       25.61751749800960
N           22.87154996400672       20.52738273902216       16.42646590455755
O           17.93050504437883       19.48246684105502       17.71732745429402
C           11.56959269958724       14.22828665365192       24.62705501536625
N           24.34751703631434       19.23390863913104       11.47579574417556
O           21.23774668683259       20.61486966407999       21.63355673582642
C           11.02638712181447       14.95683458611705       23.56842198852280
N           29.57440295988237       18.52170087830327        9.14450342179493
O           14.97689647553652       21.25579403195139       21.74868219660765
C           11.93283437886189       15.46226247930922       22.53229666015626
N           16.02077573590253       17.99178990015268       19.11310456663081
C           11.14490260650603       13.83566315984742       20.80073795726203
C           11.87302943663898       12.54698690157590       21.17979468809184
C           12.95021032379071       16.37899202844561       22.67219266643279
C           13.37089356500343       17.09374157042523       23.91610977783039
C           12.82521682889107       18.52967069672432       24.08942872605813
C           13.21410770836768       19.02933825411345       25.48337452033542
C           11.30446064975849       18.54049974722621       23.94046971083838
C           13.41127556030890       19.47880491063435       23.03821534582154
C           15.49230315855496       20.44730509935201       22.49170015402672
C           16.97145642404874       20.42139107176975       22.83209865695259
C           20.05536793102103       20.58590577769310       21.29581654287197
C           19.64548586494940       20.03935933088933       19.92260689884690
C           21.50866633826277       20.68634423528495       18.49329388616398
C           22.81609329903093       20.20415124937581       17.85029988645963
C           24.02385100333385       20.77550432644275       18.62659195978653
C           25.32570323130560       20.47292641922613       17.88723162197703
C           24.06467443233346       20.16447667962659       20.02421997265553
C           23.09694131752020       19.51706753089287       15.57786921719472
C           23.21508170824703       19.78946780385879       14.06545378557955
C           22.84570517406551       18.52987552634198       13.27814504688887
C           23.00882189194483       18.78070990231218       11.78098457468104
C           25.09088402858415       18.59270098068953       10.56129985423657
C           26.38378129987487       19.15157840082307       10.25611233974758
C           27.45337334632645       19.36718034150591        9.74318616427645
C           28.74441379563076       19.73429190032777        9.16799453564010
C           30.91136018804769       18.69997418882139        8.61648649111405
C           28.94189729617419       17.37412959180168        8.52350416859734
C           28.46615299040739       20.34980361361649        7.77862285771366
C           29.37899054360025       20.79631104894575       10.08119417111842
C           24.77074758027291       20.41404877866741       12.18934350554312
C           24.64715789710889       20.20231158238487       13.70187974947700
C           22.68594239159658       21.91196718134326       16.04060045209031
C           18.73474125800829       18.81414429366035       19.95466955982723
C           18.32733603532877       18.38829212586032       18.52995542607379
C           17.20868914435086       17.33700686152582       18.60601959727143
C           15.58675415816470       19.02454774798646       18.19141035621226
C           16.69888366657027       20.06778959650715       18.10864430693365
C           19.41530182650562       21.82962739500594       23.29401329812971
C           18.65691365219645       21.24179998079173       24.48093605110354
C           17.16741276558714       21.19001580378305       24.15402678108732
C           13.56616711627168       16.48696744720573       21.39089372361162
C           12.87850221214060       15.60318098200075       20.52293546161398
C           13.24359842169315       15.47886863807335       19.18576809037906
C           14.27882315094786       16.25893054993249       18.71933440008994
C           14.97150276259788       17.13414974516676       19.56915707388677
C           14.63661735736040       17.23257236793889       20.90179159809283
F           22.33378830141540       20.79917611844858       13.66540128559909
H            7.41877610861679       17.50200272443914       22.33533052548513
H            7.22011586591764       16.38673166606036       23.69847024557419
H            8.46074145767578       17.65094127186522       23.75456320835266
H            9.68867880315324       16.51381813176086       21.89924938554631
H            8.86994639093975       15.61228046163412       19.75063566121167
H            7.30708160196402       14.76007947939821       19.91264574903311
H            7.44278317308764       16.46680946498381       20.39912562063603
H            8.68297321874519       13.62528583398489       26.25319455297297
H           11.13805521290231       13.15973483498925       26.44080502955347
H           12.63464843857652       14.04635437356231       24.65262635227408
H           10.15166472906340       13.84470468279289       21.25622039956639
H           11.03158159641399       13.89394851924794       19.71564549090003
H           11.94968341108159       12.46329272903222       22.26135633791192
H           11.32262917440336       11.69088317711241       20.80267829829657
H           12.87527180989682       12.53816103366892       20.75733346456781
H           13.03827041107055       16.51689225697892       24.78033222094882
H           14.46068128753107       17.14318231342768       23.93317239901580
H           14.29085209342209       18.97110438082785       25.61854387870117
H           12.90378111578854       20.06302475808223       25.61693537822808
H           12.73379801462750       18.42481350938375       26.24769294949015
H           10.89836488777141       19.50842712422054       24.22387930366785
H           11.02144789221414       18.33522158267996       22.91026959022480
H           10.86386829233411       17.77502925591846       24.57679458352240
H           13.01459176420182       20.49251454384448       23.16692512995974
H           13.17097310648085       19.14403557155719       22.02431520611813
H           17.29676926743527       19.38416716171686       22.96299018339723
H           17.35120779565290       21.91262082333879       21.49085262973065
H           19.14560024125901       20.85859190891459       19.39143393394431
H           21.28783735869773       18.85118248064047       19.35600688681368
H           22.86249939271543       19.11188514517266       17.89850234250019
H           23.90037481020632       21.85844933435943       18.72149270418416
H           26.17161719110332       20.77586878138987       18.49723491575417
H           25.40174478894095       19.40598594106439       17.68840750984025
H           25.37695308587700       21.00329803377012       16.94060394202802
H           24.21191061899056       19.08862701884481       19.96018396767332
H           24.88936299715854       20.58851477677699       20.58885502023668
H           23.14755312044892       20.36372595515229       20.57153194861748
H           23.49472411635584       17.71956140892090       13.61052685953424
H           21.81319396919165       18.25253006279190       13.49472489707987
H           22.29314266692372       19.54617031722150       11.46027022561742
H           22.83134970231768       17.86327931704365       11.21765119882500
H           31.47432481206890       17.79167582054012        8.82919569959168
H           30.92921963075452       18.86245091847925        7.52822658481344
H           31.40647900147128       19.52928161511896        9.11094444854235
H           28.90081380292643       17.44335004205769        7.42520012419548
H           29.51618961295208       16.48636153657090        8.78547724832158
H           27.92857294552289       17.25370034995422        8.90124431581316
H           27.81404873620430       21.21226758087377        7.88550424182995
H           29.39845498794785       20.66959384927122        7.32037327820271
H           27.97679162260613       19.62749787577830        7.12886166951466
H           29.70500957314528       20.33643418037119       11.00954073208679
H           30.22736261071558       21.26710453571538        9.59315442631140
H           28.64426950254300       21.56519890004758       10.30412713147133
H           25.80531649108077       20.63479115731849       11.92400466492818
H           24.13347427460331       21.25568332732404       11.89416856120436
H           24.92761932826511       21.12245925383933       14.21287989168700
H           25.31170200788397       19.40226087093615       14.02943955383436
H           23.45899999102117       22.23509345372704       15.34639967948613
H           21.70848731523740       22.05957511454813       15.58065670091301
H           22.72559480861015       22.52421565635287       16.93478587330568
H           19.24593339056538       17.97973876849615       20.43321963138895
H           17.83082418684133       19.04898425471505       20.51262162319051
H           19.19065233208543       17.97705543586864       17.99678128847534
H           17.49510341136416       16.54035642868028       19.29480549753615
H           17.05682643376370       16.90146000239235       17.60056001791344
H           15.38494005366981       18.62398495149515       17.17963882521101
H           14.67753665530147       19.48809743670205       18.57820948258836
H           16.79573662408109       20.56303571963655       19.08282399841494
H           16.48199693643951       20.81306424348577       17.34190418639775
H           20.49361407512471       21.75876961371258       23.43325456152742
H           19.13933225483887       22.88062794625825       23.15029289754726
H           18.82927828224080       21.86407033130787       25.35703998439033
H           19.02759251788954       20.23834813925927       24.68820499742237
H           16.77497943011046       22.20285335085984       24.03405537777654
H           16.61230215676450       20.69592445720785       24.95015387137783
H           12.73231196148529       14.79931395458916       18.52124376979113
H           14.56774912620430       16.19468263652871       17.68036016113894
H           15.20896942590714       17.88470504636296       21.53838304284112
