151
 energy: -221.315613707647 gnorm: 0.004276020608 xtb: 6.7.1 (edcfbbe)
C            7.87089425652919       16.75326232359392       22.74417321598478
N            8.92395440027258       15.74760127518205       25.16071790098327
O            8.66566128115936       14.43360729232776       22.51440271116448
C            9.05412824080010       15.78563544284157       22.75269917268500
N           12.29577227593493       14.76287483298350       22.30115312414890
O           14.65052073540195       19.97375778818153       22.17155837215347
C            8.22481047153615       14.16367794869024       21.20197093172475
N           18.01193080052478       20.42671481051472       21.05043556858604
O           23.68623738325974       20.19654316923333        9.29108454567629
C            9.73048112454179       15.78353959130632       24.10907991405670
N           19.29908663296799       20.24860426580832       21.56891369780232
O           22.27651284585789       18.84744325252451       14.99898708478938
C            9.44288832801676       15.73839555533024       26.37458949481973
N           20.97836359634528       18.77031248118800       18.72728644248330
O           21.47711150313883       20.95444508955200       18.58042169270710
C           10.80766276121126       15.78189593368239       26.61684558528329
N           23.19622285113925       20.32125729727871       16.42787342745765
O           18.14468124594285       18.20350817915880       17.44054493069948
C           11.65533587899650       15.81884292909744       25.52524303648942
N           23.90631276073114       21.24242351671319       11.29084925794950
O           21.36040531603942       19.38957569142376       21.32420144979946
C           11.12426248263570       15.80696149968006       24.23499285136958
N           28.83041586669037       19.22504919835735        9.14147059382324
O           15.47072053792394       21.12986174436699       20.43607681408535
C           12.05016269462416       15.85760423683137       23.09550428256136
N           16.27081955194947       16.89026652076568       19.12376563834660
C           11.73759453894849       13.44757964631884       22.48917711730486
C           12.56221924916028       12.61547287673514       23.46945013056900
C           12.84472394869046       16.91782429814644       22.72046593549695
C           12.89156900282008       18.23580007695096       23.42922805519568
C           12.32654155462786       19.46910439764304       22.68445723336660
C           12.06631442319683       20.57430954720780       23.71298596308427
C           11.02415467190174       19.11038975712107       21.97038553879413
C           13.31747853425309       20.00441929583401       21.63944558103529
C           15.62834480380471       20.48179699835623       21.44771226575651
C           16.98498550947007       20.13413341089367       22.04138091298574
C           20.22582061872129       19.55830593018229       20.88921116701525
C           19.79522698909609       18.99935280860782       19.52804983592435
C           21.75250222056996       19.78487298697429       18.33199205361345
C           22.98091902245384       19.36454501126369       17.51438137689981
C           24.23820372552705       19.17839410445627       18.38759156513438
C           25.39141723737708       18.66626600091688       17.52529130976153
C           23.96749893552522       18.19482113298021       19.52413317690575
C           22.77607943245801       19.95532410640517       15.21133593292157
C           22.99887216007733       20.88625590186101       13.99874947934476
C           22.19334559030069       20.38335854804690       12.79910395594659
C           22.48725984698370       21.23100132297004       11.56177498804503
C           24.39852162402294       20.68420440137098       10.17173812967202
C           25.83256788300614       20.70341838285972       10.03323448122452
C           27.00409761056132       20.60321441686864        9.77051898657592
C           28.44299847045063       20.58953230470573        9.52108002356207
C           28.36461159676014       18.19205279114916       10.04256220348226
C           30.23763253461698       19.04477537640454        8.85258092861365
C           28.68474188312891       21.54580298240301        8.33864587201797
C           29.15007938524238       21.13162268721131       10.78125146149886
C           24.70070076559138       21.77986257997758       12.36746104802014
C           24.48817089817922       20.96487031197703       13.64765709748464
C           23.76360972488462       21.60212683320535       16.80305769259638
C           18.98625119096673       17.71510638044722       19.68269855287176
C           18.52039074790924       17.14748678163432       18.32256372562557
C           17.36854246526680       16.15861290984406       18.54617098236872
C           15.92105297179951       18.13009591726275       18.44642220450062
C           16.75794699571279       18.28949389149313       17.18004718259811
C           19.61575915140372       20.94534040455450       22.80770433165905
C           18.60285365614511       20.56537771451696       23.88378968970157
C           17.19479749232801       20.87045329823854       23.37687998846453
C           13.64345775084261       16.44859032843084       21.63432350425133
C           13.29074748775519       15.09118753777369       21.42072107045724
C           13.95299946617953       14.31824162314028       20.47389441903784
C           14.94339774125586       14.90376810566708       19.71415144992588
C           15.28505939322365       16.25632815218717       19.88323638978359
C           14.64514070616622       17.01314229139757       20.85191137088914
F           22.52670038962145       22.17897617134185       14.28248429203312
H            8.20592293268522       17.73551541825297       23.06340143248047
H            7.44650451888240       16.83668542609009       21.74787430698582
H            7.11566683888856       16.39641578237105       23.43765416221742
H            9.78640099749647       16.08394493664720       21.98392083896298
H            8.97574377232376       14.47679648341561       20.46585051388649
H            8.08965631655289       13.08499295312805       21.15333055381838
H            7.27442125319878       14.65809473124808       20.98238617725999
H            8.72687048616038       15.70137969240547       27.18425192914378
H           11.18983250688913       15.78631590566081       27.62370184657190
H           12.72746640347422       15.85004109464058       25.65541603831851
H           10.71518548073296       13.54952867333294       22.86042419013229
H           11.70174248187370       12.95267971067351       21.51576373530662
H           13.58625237343761       12.51633690823074       23.11776347966148
H           12.57376249049438       13.08986606664770       24.44798431036525
H           12.12476799730897       11.62664268275163       23.56847062318304
H           12.31297904900500       18.12764500538059       24.34876043976394
H           13.92476814076369       18.45218326719645       23.70622294122294
H           11.66647749955924       21.45994677422744       23.22377496019722
H           11.34675964418056       20.24204656122586       24.45649791838649
H           12.98991354147532       20.84482953513011       24.21822373374154
H           11.19613016789108       18.33212062230703       21.23114093508564
H           10.29971797991178       18.74438649950557       22.69242937615917
H           10.60975376571076       19.98058528255038       21.46767717718607
H           13.07059681977958       21.03160166954621       21.35311007008677
H           13.29931839880318       19.38833109408530       20.73539110945275
H           17.00199346889471       19.05349441793360       22.23041499313790
H           17.89101419807475       21.37764118363985       20.69860932674349
H           19.18733424364788       19.75800333268489       19.02352916876147
H           21.27154242595689       17.81940585477428       18.57204806933105
H           22.75027222505960       18.41201386240891       17.02552658775898
H           24.50572971391601       20.14056240106751       18.83167612183939
H           25.13792412057263       17.69732323925276       17.10050673923433
H           25.61129631544882       19.34423576817614       16.70568184421207
H           26.28582992646109       18.55484277022025       18.13161297639498
H           23.19688312961678       18.56818600052055       20.19442527679906
H           23.66307804654513       17.22715248466807       19.13088183352024
H           24.87607159344806       18.05451326787711       20.10294176656179
H           22.45233094950427       19.34016421836614       12.62206230489311
H           21.13142432128470       20.43256967886864       13.04034421417286
H           22.14971675313050       22.25875385482164       11.73058583395500
H           21.97785947926019       20.82090978995597       10.68852622488699
H           28.50536854157085       17.22765876669571        9.55524595124539
H           28.90644902056128       18.17370449376902       11.00109932439211
H           27.30285808218358       18.32629799344593       10.23899544730767
H           30.58583704128386       19.81315299453878        8.16967380913765
H           30.86820959417116       19.04836353282615        9.75472204032148
H           30.35543263422788       18.07749238276667        8.36388636911662
H           28.11781096555570       22.46132447795942        8.48701746550947
H           29.73645375357133       21.80410741017500        8.25722775903528
H           28.35445410730074       21.07475427290338        7.41729995978276
H           28.95522110998597       20.49058006204905       11.63748481370799
H           30.22203849183978       21.18464103151661       10.61160264458954
H           28.78235460690369       22.12972820345625       11.00294500455880
H           25.75313998895354       21.76608280332424       12.08219849171655
H           24.38700800485304       22.81426224026855       12.54566280633242
H           25.04255044290403       21.42848946926746       14.46072041148959
H           24.84645858237042       19.94440544129589       13.50668647303791
H           23.50882059613372       22.37662308131183       16.09243368129633
H           23.33977215350491       21.88684667011989       17.76432144673979
H           24.84811255635088       21.52693812589817       16.89208949886547
H           19.58278821153184       16.96267199269353       20.19910061386950
H           18.10644941395413       17.94373614725231       20.28166661587157
H           19.35406595098139       16.63253306442396       17.82794002896431
H           17.68628764034696       15.39371768345901       19.25606094390347
H           17.12074156485298       15.66677193988510       17.59223718006367
H           14.85791602660811       18.13008948746635       18.17081043495750
H           16.10822283617347       18.99684572897794       19.09610276122407
H           16.60198859772289       19.27898110472893       16.74664329423418
H           16.46929980876932       17.53374517143525       16.43455342304616
H           20.63103513753664       20.66230457610954       23.08409844545994
H           19.58232520181052       22.02440915297105       22.61916417150284
H           18.81010365916484       21.12788842002657       24.79275373556971
H           18.69302872733119       19.50114464496459       24.10503860781238
H           17.07769736740719       21.94542032573474       23.22221730700047
H           16.44320713918070       20.53718430184436       24.09121037932020
H           13.70358305477321       13.27813281395962       20.32796754314947
H           15.45930888959012       14.31358742978694       18.97273537298542
H           14.96755890644612       18.02615205639390       20.99979526941518
