151
 energy: -221.322146181885 gnorm: 0.008065721320 xtb: 6.7.1 (edcfbbe)
C            8.35560399856761       16.51416124781553       23.68516220920532
N            9.49585615613123       14.04893640919234       24.37725641846848
O            8.47007064339147       14.98382065078963       21.76609928090033
C            9.23446511405200       15.74796079602093       22.69885654549004
N           11.94667121591521       15.22903085650701       20.75405411464141
O           15.15308052328661       19.21949802225201       23.28240103853363
C            7.81097426500199       15.73977337296905       20.77483608234308
N           17.73239465976853       21.20088496351121       21.83120776962599
O           23.59792907189492       17.60471990048289        9.79915999726472
C           10.10622464539613       14.74319876898181       23.42782612090675
N           19.09462106167279       21.41203807624369       22.06046947731992
O           22.39812445780447       18.90788201815531       15.71710030115595
C           10.16515263283046       13.13125724400722       25.05043841770175
N           20.78187513847451       20.29605545923914       19.00007095736605
O           21.17389021854850       22.41977622430419       18.35534786905151
C           11.50089937493470       12.84772314477861       24.81586245584491
N           22.75546376139269       21.06555273546443       16.25490796779847
O           17.72359127947329       20.34115517086326       17.66033229057949
C           12.14984603314896       13.57149550925629       23.83296966357197
N           23.87869019884200       19.20690957250294       11.38163558314486
O           21.23262593776010       21.14515958301804       21.45084482711198
C           11.45706190109544       14.54237814993568       23.10890455104808
N           29.03091343444997       19.19747650471593       10.28011426132009
O           14.97495038480828       21.14709709239391       22.15002449325907
C           12.20322584335663       15.31158079720109       22.10554614760079
N           15.90001243028365       18.63767480392563       18.92744355971606
C           11.04931223941990       14.30507130855870       20.10509499229053
C           11.77203389721362       13.03124064138392       19.67145518311735
C           13.27597284475551       16.14546466749747       22.33573913819652
C           13.86905001363704       16.53850299909631       23.65040070878292
C           13.36011953468425       17.88077374029550       24.22519513532804
C           13.99522279712640       18.09850398331935       25.60110470812903
C           11.83802626327596       17.85095410030325       24.36387121814684
C           13.72658616602125       19.05629668282399       23.31127537422003
C           15.63914049008257       20.29449023367394       22.69645607404081
C           17.14586284888295       20.36974096651995       22.87876498124686
C           20.03942339388498       21.03822860915279       21.18306122045690
C           19.59900961258379       20.58249266798332       19.78507211227993
C           21.49579791014048       21.23792506436377       18.37395227540654
C           22.74797217694162       20.69601119741842       17.66902849376767
C           24.03002615011285       21.14660208496215       18.39668640607452
C           25.26909807526433       20.67101200604915       17.64090848813478
C           24.03664264002046       20.57122207422890       19.81136418087736
C           22.62107840920044       20.07065073149211       15.36864496696024
C           22.89396706801393       20.29014311988188       13.86873812040393
C           22.05168734016845       19.33451190669450       13.02101357545636
C           22.45827349548820       19.42523074445444       11.55083478165202
C           24.33436410055418       18.33127553501176       10.46760319040755
C           25.75938490403391       18.31785827461337       10.26175963930896
C           26.90582536838840       18.22718698657756        9.90040035502514
C           28.29535526680044       18.23675039492752        9.44972491002194
C           30.37616083661874       19.50330293777431        9.83757414065320
C           29.02577552102245       18.87704922525245       11.69422759837680
C           28.84324226037584       16.79515613185179        9.49737298457383
C           28.24661539553130       18.71564025317984        7.98823193614632
C           24.71996434807085       20.10307249023262       12.13953981883117
C           24.38585300707031       20.02031676516892       13.63056320327045
C           22.87682136930367       22.47415720730951       15.93600363662783
C           18.66496791443228       19.37589291373485       19.72050202055094
C           18.17416296711049       19.14544886859800       18.27778560360915
C           17.06484559531406       18.08036250431149       18.26876724375574
C           15.41555049287511       19.79139264097570       18.19173798194930
C           16.51907709962177       20.84584054747910       18.21590739341974
C           19.45865184865410       21.98288464274883       23.35175996304459
C           18.92267898015156       21.10139188782973       24.47551976782156
C           17.41725469542717       20.92145185839831       24.29198781767096
C           13.71702014328019       16.59170689831411       21.05589731791519
C           12.86262056588141       15.99802809982925       20.09482014901064
C           13.01883655985588       16.25315629079853       18.73563678362256
C           14.02025442707827       17.11562834951208       18.34967173126453
C           14.88367180820713       17.70032852375979       19.28909742345525
C           14.75312420536736       17.42205313378138       20.63245298226564
F           22.60796228324199       21.58878004990529       13.42980744588688
H            8.98175212180799       17.09575781892294       24.35505388081792
H            7.68465508763522       17.18860889013973       23.15827975203975
H            7.77489897191020       15.80223640067447       24.26365833108400
H            9.87212626122682       16.45021617974453       22.13591007964037
H            7.38958681838757       15.01426614890152       20.08409299100003
H            7.00565313295934       16.34947517310818       21.19271540216431
H            8.51730947723257       16.39077053239073       20.24706893855752
H            9.59758469370207       12.61015423282227       25.80909097403227
H           12.01344303642979       12.08704559823465       25.38112941742676
H           13.18988774039013       13.38884563477683       23.60588047802171
H           10.23817331666956       14.05618357642506       20.79057361694762
H           10.62392588888457       14.80452502346233       19.23141154466756
H           12.18363393968941       12.51727740488231       20.53687462986415
H           11.07316234390619       12.36758015375627       19.17142599068578
H           12.58463271985903       13.26745423870250       18.98855345977111
H           13.64577534695449       15.76466560493968       24.38806702686828
H           14.95281810102896       16.60531072777362       23.53781084537871
H           13.66979265931524       17.32545808715296       26.29107269763639
H           15.07869202658765       18.06793868131232       25.52818147486501
H           13.70218783096862       19.06509707434438       26.00289916272245
H           11.53564922316342       16.97720186243882       24.93575100080193
H           11.48195907958320       18.74137596733817       24.87481407636410
H           11.36763237463392       17.80236302266549       23.38598370617633
H           13.28469824355116       19.98719308547881       23.68094470562561
H           13.37249033040301       18.89276056558191       22.28989839806055
H           17.57228047091111       19.36482966207770       22.79223418948143
H           17.23120335356091       22.08729615000874       21.77677678309933
H           19.11558040316473       21.45027336059726       19.31844614445570
H           21.16179130965406       19.36506804446286       19.08627665848032
H           22.70901781807424       19.60279156354627       17.67888136683432
H           24.03434542251215       22.23837606576978       18.46513883652572
H           25.20776161144968       19.59936641847274       17.46131506713870
H           25.37338235743250       21.17483122982145       16.68567721450788
H           26.15630244949088       20.87259662607739       18.23280294571096
H           24.92515454143155       20.90445590235158       20.33978637958690
H           23.16659433275822       20.89610153095830       20.37571281276033
H           24.04590014240437       19.48387519026508       19.77628908492519
H           22.19266489118290       18.32576263948337       13.40700488611420
H           20.99792492404476       19.59905521071649       13.12094904420371
H           22.20738457957959       20.42290950324145       11.16773930983009
H           21.92925087282770       18.67400369120402       10.96173912677336
H           30.36668582269730       19.84689770277843        8.80788514541384
H           30.75348616115717       20.31164100814986       10.46218171933902
H           31.06841640583609       18.65262075989240        9.92839261325718
H           28.03363766682535       18.54471962765089       11.99153541875339
H           29.75493139378472       18.09759276065001       11.96163954345906
H           29.27427209390392       19.78050536904518       12.25109321111917
H           29.87369516945378       16.78141405552363        9.15268017773906
H           28.79956599004631       16.39578903095902       10.50710288620406
H           28.24913528829400       16.15808521935614        8.84826202277848
H           27.45004446306332       18.19293837427270        7.46504665911877
H           28.04191841160101       19.78159593189763        7.95743125093352
H           29.18444745257781       18.50728950244751        7.48250631621724
H           25.76467667147088       19.83634738034349       11.97751304743054
H           24.55596183210319       21.12848554162495       11.79124839794438
H           24.98795272317320       20.74876747766751       14.17196876332446
H           24.60311159259203       19.02415175997661       14.01760426840477
H           22.69862693218237       23.04068471709373       16.84563073551326
H           23.86587309198356       22.71085644812998       15.54212858762253
H           22.12328369994621       22.77700183031804       15.21226460798579
H           19.18951133818285       18.48319287203244       20.05977219525767
H           17.79581527804254       19.54554636334200       20.35027581029320
H           19.00338744154106       18.82274188721590       17.63956272296979
H           17.39375293706889       17.19598637394609       18.81618162876104
H           16.85249195699990       17.79376027796522       17.22297471497212
H           15.16950608537782       19.54827922828526       17.14212395087458
H           14.52469902127141       20.17947255158532       18.68758735025753
H           16.67613687180694       21.17351897542796       19.24959041010082
H           16.25624478579037       21.70404571559764       17.59624406712828
H           20.54544466472672       22.05588618411312       23.37748053134270
H           19.02669179865864       22.98795953565326       23.41702409292096
H           19.13458305333733       21.56713398479591       25.43684896075367
H           19.41954485969852       20.13116371813491       24.44028008173180
H           16.91270813772793       21.88396535156739       24.39982626429762
H           17.01662116620746       20.23365162547651       25.03450085023439
H           12.37397359989913       15.79791463160537       17.99986250088890
H           14.15121473183966       17.34547413119583       17.30179009169705
H           15.45086444830951       17.85732360269655       21.32828639689390
