151
 energy: -221.320483122541 gnorm: 0.009397540493 xtb: 6.7.1 (edcfbbe)
C            8.17402923439536       17.13185816491139       23.16961471871158
N            8.93475005844988       14.77463613103470       24.51864891516314
O            8.35669877874480       15.20592095071874       21.65501413902539
C            9.07757556100808       16.09001416772318       22.51019549287610
N           11.91757098336807       14.99168493792535       21.17082812448857
O           14.91954387879481       19.41072304749471       23.19768671134428
C            7.90479479543282       15.78988718998744       20.45213148593530
N           17.62990918587317       21.12576865089362       21.67313251541766
O           23.86582074292679       18.13336059702468        9.67683517935859
C            9.73655614351400       15.21510216122848       23.56061187295095
N           18.96336742864660       21.41270432581420       21.97528003378906
O           22.83678094658636       18.71168256732796       15.61463243793833
C            9.42122168556224       13.99881788470680       25.46962894110134
N           20.84580155899641       19.92471231136407       19.20404003629768
O           20.90534595677073       21.88636209116513       18.10833830789952
C           10.75244012958467       13.61652036017856       25.52609076006977
N           22.87798150641278       20.82616787042631       16.39116859813250
O           18.38750885694974       18.93752966106618       17.72217929432620
C           11.59997860081929       14.07639436266598       24.53638171607499
N           24.08683146862921       19.69913320426886       11.29874741261471
O           21.13944161228740       21.23609102519664       21.48714530091222
C           11.10080391399114       14.89064218772587       23.51937075312845
N           29.19819681720384       18.09011224524712        9.25142919145719
O           14.87252195276139       21.11413366208746       21.74284780254533
C           12.02800829623688       15.37384678525098       22.48908765850655
N           16.23202858103729       17.76501734565586       19.09500122830183
C           11.07247669093995       13.93908695247184       20.66578169160329
C           11.77001453793559       12.58209440040159       20.74527416492357
C           13.11408919966583       16.20508690669271       22.65699037764412
C           13.58531550921895       16.84526502036170       23.92311836166757
C           13.03137889624679       18.26378239837027       24.19473986012811
C           13.53359556794508       18.73344714176883       25.56298585025949
C           11.50496265908966       18.25405690823093       24.18889672142765
C           13.49854192183047       19.24462129199880       23.11325726133078
C           15.47225699613082       20.37244610362960       22.48716402252525
C           16.95403605999719       20.48387159076396       22.79247825235957
C           19.97389942749167       20.98470517896665       21.20559084323462
C           19.62361355371733       20.22044134698200       19.92054864303959
C           21.41849073340882       20.80779549447554       18.37486924273319
C           22.73788674812042       20.32353670647614       17.75713870912364
C           23.97357078012630       20.68732370026478       18.61272410745080
C           25.24251070493145       20.18000722553441       17.92649340670865
C           23.87376054693182       20.09637410230816       20.01661467324971
C           22.90895597565105       19.92477412961491       15.40206508991918
C           23.12761838353157       20.35133644984369       13.93841131960046
C           22.34420498517610       19.42479706767482       13.00339866150985
C           22.66352790180803       19.75884245649551       11.54983993549034
C           24.57085190277341       18.90892457789822       10.32557579199763
C           25.97178008586021       19.05435078126774       10.01202222127496
C           27.07184853377881       19.10637144221586        9.52397127454467
C           28.39472580419680       19.27459183674732        8.92275713698891
C           29.38770210136103       17.89251223377879       10.67389601866085
C           30.45735040769126       17.97964167594420        8.54698623871756
C           28.15420214318365       19.35641739221064        7.40592420789642
C           28.98780396714723       20.60999379058721        9.42042324300083
C           24.87571591957228       20.57567408038145       12.12943676441668
C           24.62577047627055       20.27661504887462       13.61219727653786
C           22.96748053780830       22.26107013600238       16.20663211264704
C           18.81871599637052       18.93828715389070       20.15277424855156
C           18.63377794615734       18.12410670878770       18.86017396294447
C           17.51452996223984       17.08666822895383       19.04857084103352
C           16.01037287645530       18.47126661709805       17.84722053381317
C           17.10137245281717       19.53152511870315       17.72784367953501
C           19.20430432389225       22.20646540341586       23.17176208095793
C           18.58621251751567       21.50880691306566       24.38042861846182
C           17.10297443089628       21.26737207161540       24.11260837369146
C           13.71974120832372       16.33736712366131       21.37094559527911
C           12.94563467679626       15.55977441947400       20.47317080433146
C           13.26819060744782       15.48620595198211       19.12340925232463
C           14.35503445289650       16.20328843075116       18.67589184405228
C           15.13864614488350       16.97348629919974       19.54930159798060
C           14.83423172304563       17.02739961918574       20.89606112792709
F           22.68499162043781       21.65190391591075       13.67864366222427
H            7.37763145162692       16.62136137076734       23.70017425758831
H            8.75233510557546       17.71823002693177       23.87456373436793
H            7.74986019571624       17.79926963314634       22.42421094813631
H            9.85622286643257       16.59349698535293       21.91283789465225
H            7.10697965738276       16.51272227523670       20.62790098741467
H            8.73097940779844       16.27971809032018       19.92634646977750
H            7.52052558529075       14.97062198014418       19.84924102365133
H            8.70732693345918       13.67648915894945       26.21551159984145
H           11.11201633905091       12.97762347967480       26.31618711298757
H           12.64457976240087       13.80062163735175       24.52922074295963
H           10.14661658183830       13.91443818297123       21.24439561849322
H           10.82130781122500       14.17149460103784       19.62759643884345
H           12.71283660438837       12.60838263193788       20.20452859281628
H           11.97128615545837       12.32398057643195       21.78210137120810
H           11.13554993124463       11.81548360479125       20.31195666529291
H           13.30080057576090       16.21678939630085       24.76920460541307
H           14.67463489642858       16.90997030011916       23.89204563751693
H           13.21732000487509       19.75646325601265       25.75178311887829
H           13.12810532756157       18.09848768862950       26.34588213038337
H           14.61801771044738       18.69084588963780       25.60590547344834
H           11.11546385686452       19.22668226166184       24.48005587771041
H           11.13371935394984       18.01512021319123       23.19713727261684
H           11.13312811619954       17.50972635124656       24.88762262733049
H           13.02722976046265       20.22435011087842       23.24433147340305
H           13.24733058359953       18.87654609289253       22.11402809375900
H           17.37424156944851       19.48195546250641       22.92013083594156
H           17.12357538787064       21.97512056931835       21.42445569085578
H           19.06119170691015       20.91662499154453       19.28798108989335
H           21.36872770277069       19.11440958615375       19.50182059263703
H           22.68789766962603       19.23412948348703       17.66013975119832
H           24.02852293618996       21.77584015841499       18.70875061519363
H           26.11052181520846       20.41971830094356       18.53360480720561
H           25.19389750290597       19.10041070703260       17.79815383145720
H           25.37338164699966       20.63086907076296       16.94625336232084
H           23.76040692052803       19.01588590082406       19.97345946445830
H           24.78462534185418       20.32038549021711       20.56452370725808
H           23.04325031346163       20.53018476701457       20.56671882750409
H           22.60931281533502       18.39551332054576       13.23910417360586
H           21.27626298167161       19.55726621514686       13.18366631692869
H           22.31390847962623       20.77310333844523       11.32675362563383
H           22.17463586341582       19.05323029036769       10.87725870917271
H           29.72396711254352       16.86861646807283       10.83611375720000
H           30.13641082034986       18.57080907663322       11.10790966559736
H           28.43941438549841       18.02920728958754       11.18947679519866
H           30.91183209503609       17.02954584319995        8.82653729113390
H           30.29056336114850       17.96770390257380        7.47288875575774
H           31.16956552525516       18.78263980156839        8.79326757358992
H           27.33866817244703       20.04714578975719        7.20543186125097
H           29.04190688433015       19.71569435475570        6.89375498120928
H           27.88021907284055       18.37798335854221        7.02201203484555
H           29.08591329614323       20.61105409552603       10.50287572391104
H           29.96532868452150       20.77097628761438        8.97348140936561
H           28.33349301304771       21.42737209765346        9.13153014163774
H           25.93318653999463       20.43852561794577       11.89467238086697
H           24.59186704448529       21.61440740208343       11.92208306036301
H           25.17514580686312       20.99702613941402       14.21986151621824
H           24.96493494999564       19.27069397846913       13.86390106789919
H           23.87218595828291       22.52801814609104       15.65933041690837
H           22.09633578860268       22.64147245489914       15.67435232177155
H           22.98306473428800       22.73465475967635       17.18188827337434
H           19.32791898002609       18.31203695219205       20.88486205387651
H           17.83518001454393       19.20923566019129       20.53161865532474
H           19.56497840115634       17.60513542790499       18.60411913461018
H           17.66390473626839       16.54371107006835       19.98048473659698
H           17.55680502526550       16.36795961219599       18.21033722701058
H           16.06788014027960       17.80640139786292       16.96828837797975
H           15.02902124155693       18.94771694762582       17.87443735718423
H           17.00366560572340       20.24053486402164       18.55860916845169
H           17.02674004856724       20.06898335010057       16.78076232380572
H           20.28346102633581       22.31940184975213       23.27679894377798
H           18.75121665808577       23.19459411445847       23.03226881686667
H           18.71509826153512       22.12990310694893       25.26570276632460
H           19.09100500602599       20.55695977707796       24.54692193679444
H           16.57917038599345       22.22272175420255       24.02465718047055
H           16.64963882839777       20.69744079887019       24.92294806628811
H           12.68747686236169       14.89044786869162       18.43547307890041
H           14.61412767596291       16.16473745972902       17.62857400427288
H           15.45848935217841       17.61248824144216       21.55127263947273
