151
 energy: -221.323260708844 gnorm: 0.004835863950 xtb: 6.7.1 (edcfbbe)
C            9.34178690508661       14.99877918302467       20.37316586066956
N           10.45796922777249       13.49364092548473       22.46290492365655
O           10.79624307167536       13.21150474191307       19.51053371503328
C           10.75366979501333       14.42507827098909       20.25969698482197
N           14.14956148113674       14.44566386632936       20.00620824700290
O           14.96906691346093       19.80801286902188       21.93586882291873
C           10.51510293495694       13.35443688228389       18.13526142806615
N           18.00253672388105       21.66028937468355       21.48577592206256
O           22.46153139611416       21.28342573139373       11.30769957696678
C           11.30467062675784       14.08281183404387       21.63019794839995
N           19.14312944959133       21.90799463533644       22.25793126462162
O           23.71745259249488       20.12994316179157       17.38683919154271
C           10.86445758476265       13.15826320388830       23.67329603419737
N           21.91334208269994       21.11255398980118       20.01418174116285
O           22.05885715190607       23.24441836680638       19.28704738532099
C           12.14864895116888       13.40087589422095       24.13674894262831
N           24.37213152619464       22.22339753354395       17.89313085784253
O           19.46509001578517       20.43363853293221       17.75732911965599
C           13.03761431894932       14.01618175992999       23.27586059056348
N           24.19809808894319       20.95836246405417       12.73123661593820
O           21.37367550987837       21.86333244865813       22.47912489000312
C           12.62915513150543       14.36513327349788       21.98764683027651
N           21.64150238135289       16.15188496708000       11.48905275286991
O           15.49241163333542       21.36975357368817       20.41327648662916
C           13.60210543301656       15.04121073564383       21.12113951656102
N           17.78295768657419       18.39488689073911       18.68181356298578
C           13.96416877255582       13.07122927648005       19.61176076274730
C           15.00209547626934       12.16124887412960       20.26654448641940
C           14.16983136849878       16.27770042539364       21.33349098055525
C           13.85835770032185       17.22171671638828       22.45070956855579
C           12.97486086226078       18.44033885649128       22.09118842663732
C           12.52362948331319       19.11186515405577       23.39114586527649
C           11.75219698487618       17.99878459451070       21.28846588559627
C           13.75467857801725       19.46380379903037       21.25430256225545
C           15.75343743920977       20.72788918083943       21.40610634460723
C           17.01736162982499       20.88981338203138       22.23619440583284
C           20.37535023316662       21.65565928822915       21.79494623552373
C           20.50781634423168       21.15251250411222       20.35180072362117
C           22.58357659361575       22.16757541979265       19.54367380440629
C           24.07293932639093       21.90205814618994       19.28962372686290
C           24.95328178515368       22.62338347142768       20.32258002665352
C           26.43328649412321       22.47316562157705       19.97365162010427
C           24.68333623442500       22.02024246236794       21.70148282001237
C           24.16324319712717       21.21991954630598       17.02597940845968
C           24.58914379744948       21.38464048108949       15.55157927624385
C           23.64686403963608       22.25806267221861       14.72012394784869
C           24.12768025355909       22.29735169897717       13.26539201333705
C           23.28681339431993       20.53641104409069       11.84165167360028
C           23.30000983526207       19.13270096679360       11.51609106951199
C           23.05131803320566       18.00906685665075       11.16083222483575
C           22.82169259053742       16.62607878471516       10.74956966113104
C           21.32665177917513       14.74973089207962       11.31398538347095
C           20.45782471240552       16.96534647580797       11.29308353680537
C           22.66065422941205       16.61824553155169        9.21495089757180
C           24.06251029426719       15.81081807423171       11.14616915647150
C           25.11348195533878       20.09777430870799       13.44171947010289
C           24.71090771845521       19.99668324744176       14.91344207766351
C           24.50938102571589       23.61624862638721       17.51539035349047
C           19.89185638922983       19.77936989141891       20.09787934376598
C           19.95565683289407       19.40424582030931       18.60476256088930
C           19.16530070743516       18.10752616584778       18.36646575550202
C           17.25538349082009       19.38439077022986       17.76060005873772
C           18.07271088645811       20.66764286282227       17.90228957683655
C           18.93879632726222       22.54318702696313       23.55355057143672
C           17.95064572832847       21.73077995696082       24.38517924327594
C           16.66249399539455       21.53331851346210       23.58887707992969
C           15.14111266400183       16.44914237556664       20.30444798517248
C           15.10834783749550       15.28003556502640       19.50255174620666
C           15.97372968354489       15.12308379212935       18.42469776015311
C           16.86082858232616       16.14023241258984       18.14154034096366
C           16.90853943651090       17.29962542819992       18.92867980467316
C           16.06842717690964       17.44412362221022       20.01343161052092
F           25.86755813432515       21.97081183145725       15.53843941275727
H            8.98345164077786       15.33345658030129       19.40397302030700
H            8.67911151681092       14.23374917414720       20.76580833343763
H            9.34867451925410       15.84472797271276       21.05312813626886
H           11.41807748748380       15.16022747951264       19.77544329144102
H           10.75165652651318       12.39380645692979       17.68325698218619
H            9.46183758054354       13.58674105589461       17.95902211381021
H           11.13943496881699       14.13699058058286       17.68960231704477
H           10.12129843777663       12.68080753303565       24.29714602402387
H           12.43980204198666       13.11742903690472       25.13490996123675
H           14.05250446907740       14.22457470761664       23.58226896099439
H           12.95794507060835       12.75558710254764       19.89421244506666
H           14.04969216564166       13.01335533049989       18.52389766661656
H           14.90455655182076       12.19657725064910       21.34905955079758
H           14.85467110790796       11.13723508084954       19.93699241526020
H           16.00712705102042       12.47832539995668       19.99762210514583
H           13.33767415447943       16.66471495780231       23.23128570812385
H           14.79541736695582       17.59739188837292       22.86491346585641
H           11.94235484005585       18.41882892242063       23.99332651157307
H           13.38574432567948       19.43572875473630       23.96750926628798
H           11.90472252671955       19.97928238217311       23.17465433485746
H           12.05533850827039       17.51847300936031       20.36176035118832
H           11.16837367146761       17.28897821822285       21.86914246939011
H           11.12407269571818       18.85213841461036       21.04598921557009
H           13.16617102192879       20.37405190856486       21.10218119279427
H           14.00970072354812       19.05419731465574       20.27219644432288
H           17.44007635956308       19.89498374263467       22.41730345326177
H           17.58506314063745       22.53334926492400       21.16348486257123
H           20.04712837724080       21.90272564750043       19.69812031182757
H           22.42096405794047       20.28109913800050       20.27095131047222
H           24.25830446890053       20.82664479922653       19.37935500956666
H           24.67653047288585       23.68101261708554       20.35893232708122
H           26.69264429938142       21.41908867044082       19.90067509003710
H           26.67790500943492       22.94887888276385       19.02766864400628
H           27.04122827599306       22.92481850248866       20.75366835766036
H           25.27367655573021       22.53990320381072       22.45095880273398
H           23.63448818970060       22.10781679403163       21.97636595171787
H           24.96125408178601       20.96889894708291       21.71619529288084
H           22.64670059414312       21.82571196013969       14.77603276831781
H           23.61081519012079       23.27317422334176       15.10576527215642
H           25.12239974515959       22.75016092702778       13.21938620091382
H           23.43475590758825       22.87392211860986       12.64992595643442
H           20.50844019562642       14.50734004903548       11.99129785598021
H           21.00423131188078       14.49775957743067       10.29266520550027
H           22.18112378135489       14.13640282556199       11.58228595325307
H           20.71309598569500       18.02012211198670       11.37710395248307
H           19.97246224496176       16.79655204074960       10.31972548842970
H           19.74075601220905       16.72091910794433       12.07697228082434
H           21.88579712116250       17.31606126434558        8.90585368931239
H           23.59575857990673       16.91526814343458        8.74876234581239
H           22.40078131402036       15.62014052522822        8.87190848113903
H           24.95768243823525       16.34972164151228       10.84627933527484
H           24.08106681532927       15.66941702475989       12.22294566058805
H           24.06287478934773       14.84450673454172       10.65080705165181
H           25.11086682008042       19.10880957466260       12.98363511264601
H           26.11651198997581       20.53054592449341       13.36922111287395
H           25.44965959107765       19.41397486462563       15.46346991964447
H           23.74569664566042       19.50056419678121       15.01184460157750
H           25.24767073020960       23.73413767762469       16.72765797864374
H           23.54396066714753       24.01895474897892       17.20011680723636
H           24.82911073756751       24.18554836725388       18.38077781504954
H           20.43178590524535       19.02427897016386       20.66856175044320
H           18.84968559477873       19.77973283275302       20.40528400542366
H           20.99685782473405       19.28148793063842       18.28560477876739
H           19.52692064874801       17.31967566322704       19.02751864349715
H           19.31038841112056       17.79538886704798       17.31749597454976
H           17.30284508684513       19.02581762499480       16.71548985158149
H           16.21529529684444       19.59628269316370       18.01412106089168
H           17.85754540632572       21.12331001006848       18.87596447886610
H           17.81792534555284       21.37422348826732       17.11102483365801
H           19.91389640780977       22.60732494020499       24.03640841955563
H           18.55428889333637       23.55573195276542       23.38743020632975
H           17.74496752011565       22.25622167076114       25.31608479235524
H           18.38909234841337       20.76073647533683       24.62218663336947
H           16.17803896571654       22.49647517910626       23.41472208637738
H           15.97070452748481       20.88715270562420       24.12598134391576
H           15.95860746562266       14.23127017195799       17.81665687112324
H           17.53762890389689       16.04416494058789       17.30471106970252
H           16.17022332978741       18.32349800416837       20.62346119696932
