151
 energy: -221.329478365598 gnorm: 0.004238673745 xtb: 6.7.1 (edcfbbe)
C           10.00345504886883       15.30463264443206       20.78891180809650
N           11.36760037714750       12.89347033845571       21.39631708725016
O           10.65965236096829       14.01737630793190       18.81372626968286
C           11.14871449565323       14.77771007528549       19.92233587219540
N           14.26952946397411       15.07747348912270       18.71242400100792
O           16.08612581386413       18.95426223173416       22.52238832633891
C           10.18044533590867       14.78524800510151       17.72821447388536
N           18.61434354882903       21.41746962570092       22.15413510343405
O           19.11218300487398       19.13707789931277       13.83852877193106
C           12.02144689193708       13.83456739424508       20.72892881247438
N           19.89464851659149       21.65327847258477       22.66455464060901
O           23.15789064877952       20.82231631852798       17.03603547295318
C           12.04055787670942       12.02034922841228       22.12182689585370
N           22.00394589592631       21.82800215381928       19.69015168641706
O           21.67387122388134       24.01877538976889       19.26452966563988
C           13.42261502215233       12.03463487255645       22.23453989412402
N           23.32830842850913       23.06538886482618       17.00283267838395
O           19.56659504718759       21.41445008185791       17.77558503038247
C           14.11371918260739       13.01353854613718       21.54660964348564
N           20.98837162587726       20.23075448887139       13.16880875615278
O           22.09121209732375       21.95436542909137       22.31176998651583
C           13.41857697008984       13.94092050199500       20.76800660307743
N           22.54159946816219       14.99567574096893       14.04156449004034
O           15.87328491823564       21.11017512075900       21.94302735123421
C           14.19726338559501       14.97964897213393       20.08545952465892
N           17.80434454156212       19.31871057279281       18.35777073703747
C           13.77156598642769       14.10176227647292       17.77477486888148
C           14.83163898287311       13.05082751919552       17.45120444294895
C           14.99756920077236       15.93324171413709       20.67477412609471
C           15.19838969814441       16.18194892888883       22.13491385494862
C           14.32363844612571       17.30424643168650       22.74178223658807
C           14.52058179332868       17.30989725788103       24.25993959940821
C           12.85065288409246       17.06818483080468       22.41342262342508
C           14.72242734260085       18.67284577369006       22.17589173878793
C           16.53201550828254       20.18258308892067       22.35874854165744
C           17.97117717912726       20.29788993657470       22.83162310906117
C           20.96861925395379       21.73421347948359       21.86587592356982
C           20.73965965643189       21.61008778713454       20.35456552560948
C           22.36429839376661       23.00899919931497       19.18809331655246
C           23.69355149500742       22.99504024652559       18.42235256544945
C           24.63156620026492       24.08995889195987       18.94088217487025
C           25.91779366998324       24.16836745806485       18.12523536172956
C           24.95146776255962       23.76937373305637       20.40324993327539
C           23.05595867067577       21.89006087626062       16.42472597964723
C           22.57996078623336       21.82128606865307       14.96208909288070
C           21.04706458302051       21.88045696609332       14.95221370242968
C           20.47882640669276       21.51905927124362       13.57986963764321
C           20.27387021200018       19.11615358356815       13.42714420820484
C           20.94007253287070       17.86918997058636       13.14980847980459
C           21.36960961279972       16.75346116218113       13.00574062403909
C           21.92934545047380       15.42198818802805       12.77570227829313
C           23.63548048431110       15.84181759262974       14.47649720234636
C           22.91584372565404       13.59954227547192       14.12095629943405
C           20.74508713389824       14.51521331360276       12.40812786016456
C           22.90866969647697       15.49521902024096       11.58558716079405
C           22.42108469423468       20.23549732896184       12.98807554311212
C           23.10572299627379       20.52898835132016       14.32432026364865
C           22.99400342133913       24.35996243789801       16.44469219498350
C           20.14018582133581       20.28118570168634       19.89467711225414
C           20.04786899692246       20.21007488404909       18.35790667737086
C           19.16250365808868       19.02700169010042       17.94348347591936
C           17.31750876686501       20.48936581758581       17.65109244346580
C           18.19921142246158       21.66789834785652       18.05489861183763
C           20.00132056095387       21.86267589355803       24.10186934645816
C           19.40157830597922       20.66852263290217       24.83891990295846
C           17.96588585760242       20.45685002031643       24.36499423351072
C           15.61081230364501       16.65268360757470       19.60816155926461
C           15.13734189300667       16.08561891756194       18.39888132633838
C           15.55470311863801       16.57282163800227       17.16385517445081
C           16.43214236264639       17.63450250991545       17.14543217387300
C           16.91468817053935       18.20000348149917       18.33589109999908
C           16.52627384708921       17.70214980261405       19.56054435831160
F           23.08282338207736       22.88683521372437       14.20897902259804
H            9.35263885417334       15.95574478087890       20.21201928168289
H            9.43140083471002       14.45886811241328       21.15724299181233
H           10.40302106174812       15.86394079507325       21.62835358231104
H           11.75734262598473       15.61285718454357       19.54414720316313
H            9.55914640792038       15.61930444461056       18.05879288748908
H           11.01360810118434       15.17391967739914       17.13112073717019
H            9.58071737523634       14.10770565069924       17.12332608087604
H           11.44035357010812       11.28274072670147       22.63644441479328
H           13.93665443941995       11.30430939615859       22.83774692559594
H           15.19196628864629       13.06555881666997       21.59053073329049
H           12.89009260984322       13.61777751020427       18.20051558747548
H           13.47656158971153       14.62405485278895       16.86036671133066
H           15.71171133383212       13.52096136012492       17.01723762022745
H           15.12915809990102       12.52665039645466       18.35686409925012
H           14.43160487543260       12.32934637831161       16.74512738438604
H           14.97926470371037       15.26589207093806       22.68527937594390
H           16.24436247611931       16.44393547321613       22.30188494088295
H           15.57153738671067       17.43799839519085       24.50408127894824
H           13.95695435445347       18.12210210803081       24.71281835335435
H           14.17583269128732       16.37222233551515       24.68717048940352
H           12.54682553837724       16.08629524432665       22.76701281824914
H           12.22697271110592       17.82022432985453       22.89063640626921
H           12.68905985689086       17.11551861647780       21.33997321035017
H           14.08857453416451       19.46682480045986       22.58263805581043
H           14.63299690967067       18.68602189659100       21.08586267740790
H           18.50939454143146       19.38269621620000       22.56539788320350
H           18.02895160997652       22.24936134296948       22.24823592209368
H           20.09197237090768       22.44392245681870       20.05843618814586
H           22.62572522158736       21.03762630991189       19.61255845119889
H           24.18310658879297       22.02581850952681       18.55581350408395
H           24.11243177787187       25.05195645473134       18.91459401895655
H           25.71849251202936       24.44581659648717       17.09534380535342
H           26.58063735541602       24.91134230606729       18.56025746700174
H           26.42490627513127       23.20660530376249       18.13316447830823
H           24.03933331102682       23.65989827211591       20.98789696794104
H           25.51304856164883       22.84119729038251       20.47616974193155
H           25.54406614602260       24.56854237605478       20.83842106365190
H           20.67649704221364       21.17954720007660       15.70115777820378
H           20.70747547140914       22.87483497090966       15.24019930097351
H           20.77637550663374       22.26295824066872       12.83663293228542
H           19.39048206783337       21.46228809200938       13.63064423086438
H           23.37859148770229       16.88683535098125       14.31927581455190
H           23.78877990011893       15.68425624616093       15.54353033238500
H           24.58064819930460       15.62304748635056       13.95766011601970
H           23.26884239351040       13.41100116169980       15.13404447806231
H           22.05222663035577       12.96623965977342       13.94212983349131
H           23.72059574401339       13.32241355123073       13.42303899169222
H           21.09321702619652       13.56167345181479       12.02231673389092
H           20.11850321918862       14.35260165789422       13.28060578022428
H           20.14855303044884       15.00060681018575       11.63927876356290
H           23.70395406909241       16.21035398806483       11.77924422563160
H           23.34658065072451       14.51608229916710       11.40845450346413
H           22.37459753922236       15.80531413819814       10.69177594123209
H           22.74558696052877       19.26806894037691       12.60466072909172
H           22.66974521338735       21.01460787895671       12.26212756645803
H           24.18236597108885       20.62601918923916       14.18148387625392
H           22.92029041532708       19.71623185065273       15.02819275441516
H           23.78372311244262       24.71636682529635       15.78262603298073
H           22.06165640793509       24.31650767013124       15.88702138183849
H           22.85266387797901       25.05860680938031       17.26350705977569
H           20.76670141021301       19.45641170790333       20.23297756006373
H           19.14010959953211       20.17103860185497       20.30677086455761
H           21.04969173931365       20.09310295211932       17.92773988694699
H           19.50012768380022       18.11717799017022       18.44144213310959
H           19.23881295958616       18.87911302678256       16.84991767057942
H           17.35613829911332       20.36093749545942       16.55462231284963
H           16.28626404114269       20.68132154517241       17.95322118843701
H           18.05593759356594       21.87364065379148       19.12252751481373
H           17.94924165550873       22.56031938968462       17.47849111248544
H           21.05872756023682       21.99244929639549       24.33110955410244
H           19.46140543394841       22.78008062865455       24.36156408047873
H           19.42597494810508       20.85327061567508       25.91169503957131
H           19.99453390560679       19.77817838794721       24.62543897522665
H           17.35209560359704       21.32035708136970       24.63276514927560
H           17.53270889679939       19.56804894483175       24.82138542534491
H           15.20719428800762       16.13966156254097       16.23811815284298
H           16.76967714994631       18.03382019155038       16.19917333301230
H           16.94005027338314       18.13335278433194       20.45663297782712
