151
 energy: -221.324980003143 gnorm: 0.008741719071 xtb: 6.7.1 (edcfbbe)
C            8.87737411111803       16.66078468381287       20.78959090460215
N            9.38151733955661       14.54059474142820       22.55155969969568
O            9.98257986208014       14.83229709111532       19.57885362078451
C           10.12519267774170       15.79574076384449       20.62154200096002
N           13.26018597655002       14.84624229350436       20.35370365266996
O           15.29134683258341       19.51163957283019       23.16196983512013
C           10.12570442491904       15.35514235802500       18.27590656853899
N           18.48786592989723       20.98971572737678       22.46957016058786
O           22.43063391298098       16.32849945412242       11.94208078450257
C           10.42431307583154       15.01308349957793       21.88732753019771
N           19.79051958344812       20.89887358185652       22.97122365468435
O           22.74038507162889       18.95559773262755       16.98702173936250
C            9.58024423324878       13.84537274875160       23.65806773311703
N           21.74876554492661       20.56293499153955       19.90073759428843
O           21.79118172436113       22.77985454129236       19.46514874680926
C           10.83908339962364       13.58556822567646       24.17636832249230
N           22.45346891978495       21.18857064464782       16.92797764220029
O           18.95410347304145       20.51281740289852       18.29245253956924
C           11.93582687849209       14.07542148083837       23.49001227029330
N           21.87913480508008       18.46388350777404       12.48103799721181
O           21.97738897419767       20.51894700170818       22.60024211683942
C           11.74313266972252       14.79844769273658       22.31527437849321
N           27.24187070153440       18.09214884393266       10.81598100263837
O           15.86460153280082       21.29762360704612       21.93645525691289
C           12.89358813245872       15.34222073712750       21.58503944851046
N           17.24003350089625       18.47158801270654       19.17106010872971
C           12.81674667723333       13.59116559974330       19.80162136079424
C           13.62913849668592       12.42122192156754       20.35617337065167
C           13.69799544371225       16.40010811380376       21.94294792924286
C           13.70214055764005       17.10449063199973       23.26411484263072
C           13.07191425780137       18.51420087121581       23.33548992180857
C           12.91963512438828       18.89632495114322       24.81109972270074
C           11.70318396813308       18.52042262527515       22.65594412611470
C           13.95062052452439       19.56161851170942       22.64239497338744
C           16.15386042855069       20.39571823562238       22.69386750576438
C           17.56072385119766       20.14738157848098       23.21938075521474
C           20.83476224093102       20.63484444334402       22.16715414204747
C           20.52746299392748       20.54549596813604       20.67219564242571
C           22.20929476573727       21.64498290802941       19.26738151227790
C           23.22499603578897       21.31598943630543       18.16735696855527
C           24.36369459033094       22.33879212814889       18.06847895138716
C           25.24179118517503       22.04961318541778       16.85356328802387
C           25.18089849824636       22.26172593147643       19.35695549936626
C           22.29259510711753       19.95862399496869       16.42562757100989
C           21.66904181133215       19.78001033149058       15.02755299373003
C           21.22708591651545       18.32769592032977       14.82387913917774
C           20.81036548138470       18.07843330477506       13.37331342028503
C           22.66623247670134       17.53641290358699       11.90506924090200
C           23.83267342858212       18.04204533723475       11.22621124777851
C           24.88756586511380       18.28102534376148       10.69681418947454
C           26.13291411003347       18.66323351415921       10.03613523824214
C           28.56532743245998       18.39906859240824       10.31280484658836
C           27.12113749123322       16.67051041033482       11.07280544219738
C           26.05491931802081       18.17348254857721        8.57504565691206
C           26.20916882237068       20.19941676614724       10.06549965000610
C           22.22159129165088       19.86306227842234       12.57270092416764
C           22.71999351107096       20.18276018624449       13.98403988917367
C           21.74854706652349       22.36890825024952       16.46673588497907
C           19.74366392084423       19.29065362648003       20.28451375254576
C           19.45039003654218       19.27267081761793       18.77156232947705
C           18.44857413994765       18.15750733399942       18.44713651168285
C           16.66317211739187       19.70749668583388       18.66932484604415
C           17.67558510160233       20.84225339325736       18.82355039523877
C           19.96326507369230       21.15900146665906       24.39343213778504
C           19.06976233201731       20.22071269450739       25.20027493705975
C           17.62210153483829       20.38488222587480       24.73975795006812
C           14.60540820483017       16.58438063874119       20.85768101731591
C           14.31784200316143       15.58083497318229       19.89681369603117
C           15.05485336939281       15.47268541645072       18.72318395543483
C           16.03260445306227       16.41224998617568       18.47380575736563
C           16.29655989725967       17.43751118938579       19.39155271149029
C           15.61943476408769       17.49708535511365       20.59370178994588
F           20.53627130046511       20.58038835616602       14.85215572389969
H            8.02100085132676       16.01867804526756       20.97018947625943
H            9.01036916818109       17.32631633843268       21.63620618956413
H            8.70451490843887       17.25757059817824       19.89850851007696
H           10.99223758004080       16.43376361292382       20.38692171475586
H           10.11333849716130       14.49703830219005       17.60744089929280
H            9.30448267888393       16.02808232270280       18.01631571412712
H           11.07765209695311       15.88980895910140       18.17431583500233
H            8.68335023234133       13.48935505483595       24.14606816886150
H           10.95596798847380       13.01748104481542       25.08474783062448
H           12.94100360566522       13.89920502159685       23.84300011855134
H           11.75834017175015       13.45757935992349       20.03625813336043
H           12.92304314500791       13.63975790290589       18.71586540334793
H           13.49757090951006       12.34799346100305       21.43341814056494
H           13.29449477389220       11.49401828659268       19.90164200012023
H           14.68638943465719       12.55863590716300       20.14284487148975
H           13.15961532821041       16.47756798002415       23.97411237491665
H           14.73685165840259       17.18545500413376       23.60376166376704
H           13.88629906266639       18.87618945306116       25.30788214430475
H           12.50341357754963       19.89624694981509       24.90439912738958
H           12.25361635635518       18.19999228514911       25.31448206135725
H           11.21731977728039       19.48535455307740       22.77692659052919
H           11.80409045103571       18.31535060080105       21.59347217416019
H           11.07025865840582       17.75307070377580       23.09449192472266
H           13.55239795664631       20.56931327278682       22.80098562651922
H           13.99472305272357       19.38136258987595       21.56472963896266
H           17.82220354029923       19.10185167427948       23.01726063541904
H           18.15761359756597       21.95564976122814       22.48366559487381
H           19.96979768038879       21.44723158907166       20.39512234515422
H           22.19635879527576       19.67145128336839       19.74669996107885
H           23.65881641657784       20.32852869042111       18.35212644169683
H           23.93970564040782       23.34386800851687       17.98855650446950
H           25.55953144850964       21.00871169349149       16.85780232761862
H           24.70726573261773       22.24192912020218       15.92888615154968
H           26.12561095362071       22.68003259545005       16.87823497266594
H           25.97552761090163       22.99477460031238       19.33769849340295
H           24.55226166046981       22.45706369473540       20.21866924462188
H           25.62359042567459       21.27508150321604       19.47175733878965
H           22.05795407376039       17.67714219538965       15.09729117476597
H           20.39321812030137       18.11599681663506       15.49486007315771
H           19.92259119323243       18.67006876550633       13.13318887644448
H           20.59612657527208       17.01927965628845       13.21833223658915
H           28.80223357478787       17.88212410748647        9.37091813462669
H           28.67817200378451       19.46980216709015       10.17228277134172
H           29.28756198537014       18.07732599253416       11.06263901652379
H           27.83898717613443       16.40209013831353       11.84756373313158
H           26.12095413503038       16.44071195314297       11.43404617053696
H           27.32674027995289       16.05040666410262       10.18673896657551
H           25.93482186883895       17.09322038822115        8.53795853990283
H           25.20126676312679       18.63071375782154        8.08165618847512
H           26.95893290605450       18.45247521314133        8.04002741150167
H           26.42560611854923       20.53612339743234       11.07488058922270
H           26.97965367990313       20.56117746997126        9.39173772208320
H           25.25676180599051       20.61550521816827        9.74810978030019
H           22.99205772881970       20.09979453817803       11.83924227500315
H           21.32204036091863       20.44948899324294       12.36166062421175
H           22.93402299010088       21.24721904709689       14.06134482049193
H           23.63186229375696       19.62227017339628       14.19301929788515
H           22.07563387955782       22.66801470424216       15.47227543319378
H           20.67427633761253       22.19167089160116       16.45711628187795
H           21.94192401144502       23.17649306287117       17.16541647551678
H           20.32852202099694       18.40488284017378       20.53515880442446
H           18.79890390077294       19.25933589709363       20.82181346934895
H           20.37533274526120       19.11514343191747       18.20591502423924
H           18.83270168424455       17.19333678919699       18.77733331668264
H           18.29592878566923       18.13486701837567       17.35470635475451
H           16.37364020365492       19.60552833934849       17.60839290732820
H           15.77584996916362       19.95370764781626       19.25405057009612
H           17.75842012983223       21.10695897613600       19.88374511186046
H           17.35329184295682       21.71728363975892       18.25968937440825
H           21.01915853822942       21.01734703981180       24.62111817840912
H           19.68713085548086       22.20223294457086       24.58993513182389
H           19.16161912681746       20.45583577968184       26.25894794209075
H           19.39425201165009       19.19078099054881       25.04302483048678
H           17.27102744497315       21.39486642231283       24.96605079054543
H           16.97144569996656       19.66925074406291       25.24245834915082
H           14.86200161217002       14.68534467959757       18.01135732371164
H           16.59877869646409       16.36094653847514       17.55596829432805
H           15.90056313769802       18.25930632250231       21.29769762075721
