151
 energy: -221.320773586133 gnorm: 0.009971246742 xtb: 6.7.1 (edcfbbe)
C            8.55204951202136       16.63046650181161       23.70386082321037
N            9.62989300749235       14.10124565534797       24.31173171298310
O            8.61044688868501       15.16331264936953       21.72905812232654
C            9.39964920725748       15.86583481613712       22.68768528795186
N           12.02145577436081       15.32436870916632       20.70324046774149
O           15.53460091393627       19.04675737104931       23.30836272150094
C            7.92671008001771       15.98705934803421       20.80928982066254
N           18.36138376374622       20.67360672016250       21.85284963097428
O           23.71291528706719       17.72111295300990        9.61282918173910
C           10.24553827802527       14.81490352123677       23.38128276553832
N           19.75066503729876       20.56215564254902       21.95768231715052
O           22.08350275586324       18.96897066563260       14.79632514312217
C           10.30260489093435       13.17221917050368       24.97327690499863
N           20.87743037240726       20.06312292146027       18.51413267732233
O           20.98084508447724       22.23279889800959       17.91105487320994
C           11.64229507478524       12.90299368061236       24.74412271775117
N           22.25338304930594       21.11135066529363       15.47132586214575
O           17.81149213192840       20.37152939699893       17.52254089737661
C           12.29168291228695       13.63997319402968       23.77047582492244
N           23.47322908993958       19.77556010976074       10.54933537810919
O           21.73350044566572       20.13917881002939       21.00880367024333
C           11.59552227276436       14.61503191996452       23.05627683978283
N           28.21723494938408       18.31942077019956       12.59119793246279
O           15.67677469722530       21.04710195950135       22.30159495503463
C           12.31938940420184       15.39412528321372       22.04683524176616
N           15.98214738114700       18.68117955627691       18.79690553029430
C           11.15826838388938       14.34685833620676       20.08809602382003
C           11.93289095894157       13.08065086971096       19.72387718043533
C           13.38742542813117       16.23721401802310       22.25867029547524
C           14.01222901834585       16.58581931925007       23.57104529866915
C           13.57217025095450       17.93648212046036       24.18407444089884
C           14.13780896161447       18.03255649091692       25.60388704424539
C           12.04843705666527       18.03366853956784       24.22900358675103
C           14.10292821861789       19.11206011486646       23.35542248873360
C           16.19066868471983       20.04797204666020       22.75520245049966
C           17.68795392653747       19.79042378417978       22.79851449613287
C           20.52244135602367       20.28481905894569       20.89704839686850
C           19.84958488323570       20.21977097234738       19.51925332288930
C           21.37892570667791       21.07988600923764       17.80227773918369
C           22.49846744814842       20.66015322927494       16.83941250414680
C           23.86699215402480       21.16092379447456       17.35454629279274
C           24.99377830320467       20.61278683744404       16.48137982073403
C           24.07445893462264       20.72975882837529       18.80527823611574
C           22.13759285574806       20.17052899101382       14.52523221527093
C           22.25589624668268       20.55645771914179       13.03537249825982
C           21.66324323978049       19.46166366677462       12.14230193759649
C           22.03668914681667       19.67499971846275       10.67224200945003
C           24.20265518944744       18.71003647107585       10.15924099879125
C           25.61501014916256       18.79159979689026       10.43678831269607
C           26.76724745473913       18.65934541782565       10.76316531041265
C           28.17716166502595       18.58749930949433       11.14516833876404
C           27.55831868772509       19.32670183416438       13.39771707520991
C           29.52456319674597       18.01595782075786       13.13603706401643
C           28.78803623686469       17.41487459560030       10.36314434635114
C           28.86204386854587       19.90482151145398       10.72258245449210
C           24.01909874951458       20.90439329870013       11.26031209248583
C           23.75287519048924       20.75320060700258       12.75798164392312
C           22.15264427480895       22.53930249283383       15.23855440049640
C           18.82723286391492       19.09116359188159       19.37408312328909
C           18.20520572819062       19.08035885290997       17.96499405304875
C           17.00521282296275       18.12458449090525       17.93589491136425
C           15.52550955851266       19.95143842320971       18.26581434285605
C           16.71813353353478       20.90582327428281       18.25247625151357
C           20.32909739517071       20.75398547668497       23.28194681689012
C           19.69347171388516       19.78193891153225       24.27147376706255
C           18.17840757577906       19.96847027959166       24.24782394478989
C           13.78832342898082       16.70082828097054       20.97170325536134
C           12.91408581601869       16.10666092895793       20.02613714070490
C           13.04086617049370       16.36517895813196       18.66540798567831
C           14.04358480782296       17.21588711595606       18.25350857126269
C           14.93231683843111       17.78825298487119       19.17457085917490
C           14.81672025461958       17.52476752030639       20.52275018835156
F           21.58373630267083       21.74442562299582       12.72776701074391
H            7.86319316278245       15.94015440108749       24.18030169196627
H            9.19929627264660       17.06610367763212       24.45843255293380
H            7.99614770935326       17.42724690825274       23.21807095222966
H           10.05930404620447       16.56691034426260       22.14943348401781
H            7.08856735341808       16.50878050910821       21.27826409289080
H            8.60747883362323       16.72055916510633       20.36273210016402
H            7.54849688620587       15.31961030201339       20.03759981494109
H            9.73004558594384       12.62580643573819       25.70691644305769
H           12.15746626712433       12.14089228294399       25.30399077705002
H           13.33394110872741       13.46538035672397       23.54500157229415
H           10.34927605161853       14.10300230319618       20.78057004814705
H           10.72030999286419       14.79043321148216       19.18978639401457
H           11.26768152226013       12.36440467093922       19.25099538030582
H           12.74469936424339       13.31579951871063       19.03891973737008
H           12.35323380637959       12.62723109353981       20.61910809387417
H           13.76333993555951       15.80627815524791       24.29289254691920
H           15.09647945819079       16.60898602721108       23.44938147939519
H           13.74645584868798       17.22827825960939       26.22065602846869
H           15.22142187824139       17.96071921585246       25.58350403713344
H           13.86123182633773       18.98040806913566       26.05979761770888
H           11.63648622082336       18.01937696451342       23.22357044623373
H           11.64089935844931       17.19092858340422       24.78177222223344
H           11.73783184914743       18.95428905461544       24.71672721788451
H           13.81051306959389       20.06848975908095       23.79988508363266
H           13.71959627286407       19.07987898539903       22.33206144624528
H           17.87506501587356       18.75593698748951       22.48732691731997
H           18.05906729376121       21.63234075861144       22.01159044924332
H           19.37619814555362       21.19022626485208       19.33216329624002
H           21.31775650805029       19.15609683160553       18.46684894356970
H           22.52522445792409       19.56756701679800       16.78526310243871
H           23.87528740908228       22.25440052576500       17.31221648427941
H           25.94967685509430       20.97588939192161       16.84576616869349
H           25.00075445069263       19.52658851757240       16.51761807190563
H           24.88314126678143       20.91971284532354       15.44489342639178
H           24.02875009904269       19.64611485769935       18.89715702695640
H           25.04791743975395       21.06389077813830       19.15199607281326
H           23.31677117297883       21.15580518748093       19.46169000800173
H           22.04196258983168       18.50020002547773       12.49085918306753
H           20.57940294318502       19.46601764517669       12.25752498123170
H           21.58268762761507       20.59623585564829       10.29702564774241
H           21.69616367440723       18.83033010614624       10.07100011325107
H           27.38437759844436       18.91029064862391       14.39127644737368
H           28.15140204821332       20.24767175638442       13.51094066673199
H           26.59602097046439       19.57586126947524       12.95384682048728
H           29.38585538987164       17.70094148613102       14.17014756839305
H           29.98168499841856       17.19464905499024       12.59233615745962
H           30.20919084634907       18.87879682391748       13.13196478076463
H           29.87345090943336       17.43917154163155       10.41057804523727
H           28.42513913015792       16.47391712712597       10.76745797070806
H           28.48865151289494       17.48222543084784        9.31935214458639
H           28.35400399895697       20.76334355515555       11.15743280057308
H           29.90056875210184       19.89996252223665       11.04869374275059
H           28.83778173066292       19.99826467004715        9.63845685000567
H           25.09082677380353       20.97406922809045       11.07213499771627
H           23.52705769495783       21.80866451247275       10.89120635680202
H           24.11213541061789       21.63810345251542       13.28182436136146
H           24.27474832837679       19.87280828314278       13.13857074518680
H           22.10631373028339       23.03707580701867       16.20258349142526
H           23.00375662340830       22.91825344322860       14.67202627846682
H           21.23428252843569       22.77603619568303       14.70483181281887
H           19.31592347124797       18.13198557268774       19.54081741124790
H           18.03077263051818       19.22257969896586       20.10162891304853
H           18.95061812256746       18.76696966494820       17.22451406437384
H           17.29323137264746       17.14187119614541       18.31243246336715
H           16.66493971354930       18.01828407276397       16.89024096984344
H           15.11950686362301       19.85108140437245       17.24316755655866
H           14.74930392775186       20.35177245228236       18.92063471405336
H           17.01225082251976       21.11854121572398       19.28702207031606
H           16.46695071394173       21.83968047691371       17.74789801476496
H           21.40359895235627       20.59552197205060       23.19031633112977
H           20.14339801110246       21.78735938177486       23.59598240499008
H           20.08640788674175       19.96725756501086       25.27031644173782
H           19.94202569659670       18.75868652237134       23.98365508698263
H           17.91948328526687       20.97199079735037       24.59643947280741
H           17.68577426461719       19.24030671337073       24.89091747293677
H           12.37271770897675       15.91810855797409       17.94536984587286
H           14.15595870004104       17.43949628311402       17.20224936525162
H           15.53406034946817       17.95890356934643       21.19830236860143
