151
 energy: -221.317717678107 gnorm: 0.008594578498 xtb: 6.7.1 (edcfbbe)
C            8.43055585007384       16.32233918956609       24.33464961519390
N            9.57699661365479       13.76508203971680       24.44516796204106
O            8.26427499545492       15.14821235767249       22.19131752853490
C            9.16528815093447       15.73455422904992       23.12979270336857
N           11.64522376966899       15.49278697197743       20.84153196692532
O           15.10086607308753       19.23213595570566       23.38514646302140
C            7.49481445045904       16.06021210509459       21.42352641120420
N           17.54805376637557       21.24944516729443       21.74523800545456
O           24.72330959167374       16.83488121484790       10.28034177357759
C           10.09700650947605       14.62515951753843       23.58054414648782
N           18.91672562666576       21.48809401433801       21.92097448046176
O           22.88980633279740       18.42341436546652       15.90143438352552
C           10.31898331630086       12.77753613941616       24.90986245282491
N           20.62436009021062       20.20460228880012       18.92050601903821
O           21.00766519277356       22.25078592480709       18.06684523479640
C           11.64483120167040       12.59313129768875       24.54758332039487
N           22.63426053787814       20.65155928703299       16.12811078297032
O           17.47875476026979       20.45638304039129       17.59836816564021
C           12.19341820592595       13.47874731612831       23.63970921755017
N           24.30353173759162       18.72725512859815       11.45738719768569
O           21.05097766206039       21.25455339296261       21.29269956384256
C           11.41795119584789       14.51861373719281       23.12419983012867
N           29.63049706971234       17.86351924374435        9.32642300744644
O           14.78400169689625       21.12483705948808       22.22004586682715
C           12.05074497902345       15.42283682005163       22.15761683387335
N           15.57952950292112       18.89299020915586       18.93793372774498
C           10.69425942455782       14.61317687974827       20.20883046115814
C           11.37399231621242       13.35126300312099       19.67829398225573
C           13.15876003967063       16.21658585976677       22.35555238215478
C           13.88319899294126       16.49728346671565       23.63159730653202
C           13.41743730837390       17.77633915280320       24.36793343560735
C           14.17307765785520       17.87797155109630       25.69551380115966
C           11.91505074365141       17.71309870756982       24.63913440470647
C           13.68773230502966       19.03293745686439       23.52840109588510
C           15.51218105884725       20.30940426509182       22.74028041740760
C           17.02208043042262       20.43496119368636       22.83954501943416
C           19.85809693087545       21.10770363041226       21.03907444114429
C           19.43327046692053       20.58659101935454       19.65808269810398
C           21.34427353614313       21.08051983716367       18.20783957688098
C           22.62265492376793       20.50164380180394       17.58263533943684
C           23.86757106974741       21.15171956345076       18.22825391215234
C           25.14341164780207       20.64679866052615       17.55868468514399
C           23.89759386119837       20.83084795451581       19.72134076778363
C           22.80777678468156       19.54450620189567       15.39455349919594
C           23.00738475461689       19.64602789618445       13.86720571994971
C           22.62392668269279       18.32351051220551       13.19773636682342
C           22.92179651197535       18.37761348616765       11.70019076449987
C           25.09221584178256       17.92954505909461       10.71879380785726
C           26.41032631102951       18.42475312247538       10.41555039467724
C           27.51853580229348       18.67181286586572       10.01450048928514
C           28.83830706766520       19.08103300849006        9.53604232362726
C           29.78264813693287       17.04762679568135       10.51425950675520
C           30.90941717643045       18.05126736255465        8.67312367645848
C           28.59887968666533       19.79696737983766        8.19461922248605
C           29.44309107106442       20.07517723940433       10.55013293593312
C           24.70636729654536       19.98548610369166       12.03348185040167
C           24.47208021883995       19.97652283206721       13.54915256691073
C           22.50286231001252       21.99216737274415       15.59206693038549
C           18.42912209369029       19.43880411641442       19.63070457044753
C           17.86749647878647       19.23564124002280       18.21055982870984
C           16.68980908734166       18.25178262784770       18.25855507924265
C           15.15724155335070       20.07307819444615       18.20867107320461
C           16.33408317295891       21.04556514437254       18.19475529998883
C           19.29156476918458       22.13255164074094       23.17402510910378
C           18.82748039472129       21.27659816214645       24.34821094337591
C           17.32443925776191       21.04094433653826       24.22535918808267
C           13.47596933989466       16.78450967646740       21.08804284054530
C           12.50854007457600       16.31242713511141       20.16832024319568
C           12.53573420092115       16.70949143404066       18.83570977130973
C           13.53886213176457       17.56434135599299       18.43338402062940
C           14.52692343019364       18.00865899473893       19.32623593693568
C           14.50590844671204       17.61256530024509       20.64614245207722
F           22.19136577067038       20.63922280679361       13.31321604499053
H            9.14941835184597       16.73070626617637       25.03684395893541
H            7.74971960357269       17.11059048240879       24.02551281691711
H            7.86643992759312       15.53150431308171       24.81868166661937
H            9.75107655009425       16.51619265073683       22.62148211731655
H            7.64316819337474       17.09008022942846       21.74638302644539
H            7.78562148629878       15.97267931470568       20.37278743452259
H            6.44181931356920       15.79702830272263       21.52947856761034
H            9.82699683559333       12.11129109644886       25.60551337575613
H           12.22303960909603       11.78111116324156       24.95870394422387
H           13.21622167633488       13.36762899167943       23.30996569493020
H            9.92242507695650       14.34064193097133       20.93199446196557
H           10.22140449387600       15.15805149967733       19.38694304955990
H           10.64889425901155       12.73407422337304       19.15737954076566
H           12.17408293279060       13.61343382612853       18.98923487873702
H           11.79460770918283       12.77776871445763       20.50059765222551
H           13.75211776530985       15.65864441785954       24.31585856169787
H           14.94512867706120       16.60413589935403       23.41146308354175
H           13.94832961563507       17.01943880698390       26.32044708751560
H           15.24337035106846       17.90983967007438       25.51978081796862
H           13.88223176029648       18.77729589112926       26.22936828231047
H           11.35959902800031       17.71954908966195       23.70630700752280
H           11.67270511021447       16.80041414619485       25.17828909258542
H           11.59699285359206       18.56459496619195       25.23487475502706
H           13.26719080004860       19.91804498870592       24.01661900135197
H           13.24070256726836       18.94852079863853       22.53394079553123
H           17.47431755454820       19.44079807859614       22.76828447388507
H           17.03478575008104       22.13017459995107       21.70181573556487
H           19.01667380498939       21.45174541880247       19.12689657116939
H           20.99503608971652       19.28414301101364       19.11121425763788
H           22.66170838185683       19.42307770556370       17.76635141302007
H           23.79699188811870       22.23733824397804       18.10723029297057
H           25.19796115107336       20.95603458916220       16.51849248804192
H           26.01103064464782       21.04115596898916       18.07951381601652
H           25.18043315398183       19.55980636516485       17.59509127327035
H           23.97658115373092       19.75704228107292       19.87903057750722
H           24.75313957053067       21.31106058817220       20.18544618233005
H           22.99908065551070       21.18799821272405       20.21918952512127
H           23.18628566825337       17.52343007357103       13.67749160889988
H           21.56123374748627       18.13718753587793       13.35197102968579
H           22.28258690375579       19.13391407512937       11.23123862283692
H           22.73394128399129       17.40863383541338       11.23640348432951
H           30.09134130443028       16.04890599331110       10.20663960570552
H           30.53635995862744       17.43985006266229       11.21400838797732
H           28.82767786624144       16.96818094323273       11.02882327872021
H           30.77962472132674       18.56691859362877        7.72672170735918
H           31.63668404301768       18.60057866198052        9.28997132344598
H           31.32213285072756       17.06431460184197        8.46634586208942
H           27.78215196720118       20.50583934415316        8.30238617242123
H           29.48701692733912       20.33936324406185        7.88499173541254
H           28.33084399619019       19.06844490064008        7.43512505566298
H           28.80171916358415       20.94733313256743       10.63270650725263
H           29.53488590278539       19.61693953563264       11.53141693853656
H           30.42544857509283       20.39574865257312       10.21370340603711
H           25.76109155582900       20.15732175923280       11.81651734447214
H           24.10831886844690       20.78850187301225       11.58838163072816
H           24.73772698510676       20.95401677038403       13.95077478579946
H           25.09250654310356       19.21723996959091       14.02605320286569
H           21.59018686857281       22.08781504119328       15.00584677151889
H           22.43337325283725       22.68744301934455       16.42108617544461
H           23.35525705434326       22.25720095591740       14.96994300344687
H           18.90763793370621       18.51461522026127       19.95325911747883
H           17.59449201913697       19.66119977886420       20.29069526985361
H           18.64962780300596       18.85272810608307       17.54655710376600
H           16.97707118328342       17.35919001215533       18.81617630724234
H           16.42289220928750       17.95384492247258       17.22783560196667
H           14.86891864938237       19.84791036968143       17.16765163068279
H           14.31180211891727       20.52375075555669       18.72922167869212
H           16.55260849592624       21.35770728207471       19.22312735250048
H           16.11079640130630       21.92266062204299       17.58588529195904
H           20.37326151175934       22.25900483246543       23.16727857209175
H           18.81098554385177       23.11574111824858       23.20733573476806
H           19.05638867854556       21.78068937938036       25.28477081664159
H           19.35555353716084       20.32238880982689       24.32793321975479
H           16.79054174111810       21.99009184605588       24.31980907390895
H           16.97081450077398       20.36528629744132       25.00311068998607
H           11.79958604264918       16.36458461535024       18.12620441406316
H           13.57582365098984       17.89093610389160       17.40410192256713
H           15.28465817523252       17.94634218835384       21.31237043873683
