151
 energy: -221.323846508230 gnorm: 0.009303211734 xtb: 6.7.1 (edcfbbe)
C            8.30693046851503       16.51486014637620       22.07398513972814
N            9.18514029979609       14.35854108063761       23.63961534061787
O            9.18983237897219       14.72043862708137       20.65061777326747
C            9.51806409661334       15.68374182665064       21.65130155771246
N           12.59368248185094       14.88829362365766       20.82739008649585
O           15.06212860318526       19.55230740281117       23.22507569747005
C            8.92244247452706       15.26378592697121       19.37643717483468
N           18.05550137156704       21.07268856661471       22.02210225241869
O           23.17652550987022       16.73839432794582       10.92210835155034
C           10.07711422609110       14.90165977917721       22.82426014348543
N           19.39028693740735       21.16645000039182       22.43327331305347
O           22.20687320253239       18.92276069611934       16.25803584829304
C            9.59979106257088       13.66117430704342       24.68261836375000
N           21.24897262695055       20.31030457546914       19.40123947481129
O           21.23312303483185       22.40918761569709       18.58098138957045
C           10.93861961594346       13.47621623603001       24.98865104636782
N           22.71487780550737       21.10312122969516       16.41358187765096
O           18.32978948189626       20.12820713945317       17.94434136259002
C           11.87840926853421       14.03751059067612       24.14314618040148
N           23.06918194244509       18.86620252382572       11.69595887029196
O           21.57620854658909       20.98507021562477       21.94423755886383
C           11.45868514531155       14.75830960744171       23.02617097800395
N           27.84782359097055       19.12212965651003        9.14576870716578
O           15.32444394227267       21.25929562727987       21.79645281263173
C           12.46132515287787       15.33509446729590       22.12481451266679
N           16.60096880833527       18.29715849992714       19.17054970687230
C           12.04819489521116       13.66220927953322       20.29998817245437
C           13.00581323040359       12.49471377776989       20.53172775321650
C           13.36937057820009       16.33796372313155       22.38407643752548
C           13.59988851010386       17.03542158974632       23.68842064236513
C           12.98542194164511       18.44523332172957       23.84315010933332
C           13.17527375985701       18.90032040189855       25.29265595490710
C           11.49565638489431       18.40890854979515       23.50411223068561
C           13.66205725693968       19.46166775751069       22.91560788345650
C           15.77413717553591       20.46568628626141       22.59563467091142
C           17.22809576011465       20.43400630209042       23.04001917997222
C           20.40452056660835       20.85745674911166       21.60577175232181
C           20.03747815492142       20.44122782264351       20.17751752800825
C           21.74357506727019       21.29513281534110       18.64939148270456
C           22.98198889423815       20.89863309507401       17.83807342003117
C           24.23436424990614       21.63688465797743       18.33628851027624
C           25.46577799495664       21.18166970548416       17.55411808006171
C           24.42678803930535       21.34016264973068       19.82287848281635
C           22.34858363745620       20.01942683301000       15.71814217667945
C           22.25804793493024       20.07415305150560       14.17807830851876
C           21.61092337426725       18.79489231074447       13.64511174911053
C           21.69381310987208       18.74431130343073       12.12040975909697
C           23.71902183275910       17.82004611603179       11.15894002799369
C           25.10581319511233       18.02476234058550       10.82353514366391
C           26.25280183598676       17.97996993408749       10.45886732662922
C           27.64234256778783       17.94690613870680       10.00480472094332
C           29.04544181700408       19.09807223481850        8.33138466018470
C           27.73327273009722       20.38415052068858        9.85229523873302
C           28.56745185610610       17.89193829464837       11.23842337058752
C           27.79468970192760       16.64583095735497        9.20093579708706
C           23.68600269091160       20.10849283703445       12.08890931876052
C           23.67381172157989       20.24673082929738       13.61551503437655
C           22.70966008508578       22.47733862100226       15.95253847368453
C           19.21861191132457       19.16080787436256       20.03308500270150
C           18.82350818970163       18.94518312182743       18.55882255964442
C           17.77070868336685       17.83400008157182       18.45449680675908
C           16.04273764329443       19.46884994092946       18.51823252789130
C           17.09826669554427       20.57170174697945       18.49321937418426
C           19.64410281228221       21.80805803187474       23.71654229653423
C           18.82136022607727       21.14249138744482       24.81603229227856
C           17.34967252868087       21.13134986165701       24.40939265751013
C           14.10515898608678       16.52425671435019       21.17700898272665
C           13.59966793192952       15.59574581878414       20.23355763042209
C           14.10680892806992       15.52005243031783       18.94018843135195
C           15.10244849735832       16.40071910479364       18.58062420895016
C           15.61338152560920       17.32521100701389       19.50314903239423
C           15.14292026505763       17.37159658263760       20.79780290231539
F           21.45688199868449       21.14072131422584       13.73759275712660
H            8.56108632552570       17.11323043882718       22.94328525830501
H            7.99886213403819       17.17685420069401       21.26893192702927
H            7.48934141462580       15.84548797649586       22.32866527358757
H           10.30489244752505       16.34542720289124       21.25231752605223
H            9.73453691945691       15.92856404191890       19.05964958996776
H            8.85727066736385       14.41578935839469       18.69841642520859
H            7.97790038535834       15.81275968007765       19.35977398904537
H            8.81577013880816       13.23956243329250       25.29649969317365
H           11.23452857534469       12.90568179017631       25.85395209802643
H           12.93618540605085       13.91348452418750       24.32410647248698
H           11.08790654194990       13.46565353772775       20.77941786585748
H           11.87389194884246       13.79818440165712       19.23038156993336
H           13.16658160105405       12.34527837546773       21.59710749220366
H           12.58899085822851       11.58445974672602       20.11164418467898
H           13.96577703787709       12.69461771138415       20.06078480641123
H           13.18275557469746       16.41704506983822       24.48439263734204
H           14.67773799303864       17.11739398549804       23.84903253573893
H           12.77083769911132       19.90005243374596       25.43038077769790
H           12.66059874270609       18.22616975137078       25.97181823505242
H           14.23123105278931       18.91548819219042       25.54869014122460
H           11.03091170327983       19.36916052881515       23.71145139780239
H           11.34724714108984       18.17182497824178       22.45306834643167
H           10.99989862725864       17.64611090721756       24.09924275879359
H           13.21612957719081       20.45399929461631       23.04045345661487
H           13.55723482318018       19.17210728303618       21.86638641332904
H           17.54884809630718       19.39100505743998       23.13520310183548
H           17.67477907932890       21.99987033755577       21.81560887981452
H           19.48872466904466       21.28555089511793       19.74167505539276
H           21.75561219673184       19.44242273077175       19.49132860348849
H           23.14345322259516       19.82321852064838       17.95258766676125
H           24.08506525325339       22.71234450043238       18.21391263070881
H           26.34434028869715       21.71443166155665       17.90653163469086
H           25.62538689992802       20.11609249378132       17.70187275566450
H           25.35406759902044       21.36254607328273       16.48900270943211
H           23.55798863715136       21.63927652662081       20.40593942614689
H           24.59008788749972       20.27713450250240       19.98114495624031
H           25.29172357149723       21.87981434575138       20.19804704150276
H           22.12537504245209       17.94061147073737       14.08419303423714
H           20.56934932495058       18.76664093080536       13.96563326313757
H           21.11779650242667       19.57051740944101       11.69046351352020
H           21.30239403157474       17.79508994906391       11.74992952039607
H           29.06359306944837       20.01347191607547        7.74357448024873
H           29.97468673034695       19.05308126544497        8.91914424882910
H           29.01701588670215       18.25713011337199        7.64436747230088
H           28.63172679402794       20.63514956299842       10.43314917961185
H           27.56777063535014       21.17054914576531        9.11682824026143
H           26.87488407926380       20.35111694759104       10.51939831208076
H           28.40575525886478       16.96044271864096       11.77480290686954
H           29.60686917310667       17.93366801925483       10.91898273384476
H           28.36973446904270       18.71941289797818       11.91429272173531
H           27.24487173771564       16.71883179389197        8.26660776874962
H           28.84104090828167       16.43697611799245        8.99704747127063
H           27.38303305284606       15.82005471207610        9.77703734423558
H           24.71145308460054       20.13471967709183       11.71935181730504
H           23.12049289716808       20.93373583826512       11.64414676717578
H           24.06713034375616       21.22339092285123       13.89170433765351
H           24.29743066871038       19.47118899178109       14.06213793210016
H           22.16751596802161       22.58428010410527       15.02200404624831
H           22.20252748310085       23.08040113814296       16.70694800658732
H           23.72860009221092       22.84435452281153       15.82565983772084
H           19.80474861112522       18.30452649409024       20.36589048505840
H           18.31213837965713       19.22884111618549       20.62891154643771
H           19.70442254677299       18.68890827650634       17.95937710610485
H           18.13912501354142       16.91804768395164       18.91878870419983
H           17.57468312204120       17.64044938406164       17.38255686896270
H           15.71440255379520       19.24056414942530       17.48939159075143
H           15.18468982098492       19.81911363433082       19.09219056862451
H           17.24234380764492       20.94544968760176       19.51298278779853
H           16.78057115989436       21.39422573571625       17.85044696614796
H           20.71391612090530       21.72849750893493       23.90676996362541
H           19.37520961419662       22.86865264047641       23.63452535906053
H           18.95508963117058       21.69402213689795       25.74507038730139
H           19.17024268092563       20.11991114664599       24.96479755246083
H           16.97886185172677       22.15689277833569       24.32071583426621
H           16.74340799939543       20.60558374875923       25.14670082585733
H           13.72285177476047       14.80402001170195       18.22998676463819
H           15.49728788674295       16.38593413012038       17.57570271287153
H           15.59385100325390       18.06561195720759       21.48542930559233
