151
 energy: -221.323359409242 gnorm: 0.009028913263 xtb: 6.7.1 (edcfbbe)
C            8.00557490883809       17.37183530994790       22.74060774003990
N            8.61198674075208       15.34516981544884       24.61757974900179
O            8.30705489096587       15.17422686606034       21.67899581938235
C            8.95410337552544       16.22261620241646       22.39984597172166
N           11.85068379667816       14.90812933019392       21.53940573924188
O           15.08270172211726       19.35032156908648       23.24389538241066
C            7.99205158448478       15.48299448808264       20.33922774747619
N           18.14359606098983       20.37657315428878       21.71241090409186
O           24.35386775733723       18.05341592322678        9.36105133639684
C            9.49911721247396       15.57767177593447       23.66202960261009
N           19.51689609183140       20.18582447838348       21.91064868375772
O           22.87342496297166       18.60455977980163       15.00855676940044
C            9.00290974198119       14.76792056800357       25.74022180116686
N           20.80170108269727       19.43991569228186       18.56602390489343
O           21.02131627485270       21.65180791928406       18.22137455589211
C           10.31359739023510       14.38666110465547       25.98061771747575
N           22.52844724382880       20.68734719781907       15.79860338958889
O           17.52307454754742       19.55012071832450       17.72664904323905
C           11.24818083510303       14.62918820185558       24.99118352572155
N           24.10681203702972       19.80220931751275       10.78409257361011
O           21.53801658065426       19.63059430878493       21.11332952226099
C           10.85183331010861       15.23239131097396       23.79789811429145
N           29.50317365102583       20.33794952730730       10.36005204004619
O           15.52811661150407       21.11566588837742       21.93730376351443
C           11.85916916654045       15.52400523244046       22.77222130889028
N           15.96700756993222       17.74679914275971       19.21743504045854
C           11.07927615267388       13.73770830300580       21.20171384076691
C           11.75887199294094       12.46233992401410       21.69612281970939
C           12.89516953780093       16.42723954724184       22.85556296620966
C           13.30548201389544       17.21805534217279       24.05773169011614
C           12.88763066200957       18.70584625399588       24.10612645381498
C           13.17960363031836       19.24173054597750       25.51049077897977
C           11.39717163259339       18.84882050758317       23.79878307475703
C           13.66449603041291       19.54461988308385       23.08291486985216
C           15.89199647340050       20.15930630460966       22.58735305482366
C           17.34846437024664       19.75500890298222       22.76548154298960
C           20.33486553833068       19.78912712136466       20.92248543452869
C           19.72849350287906       19.57645147528342       19.52982989868763
C           21.40760967619325       20.50571974091644       18.02434758943330
C           22.63871974906143       20.18194728892533       17.16592109841123
C           23.89914479217540       20.73204096860622       17.87667615693119
C           25.11560561113939       20.68433196652169       16.95415238430659
C           24.16418029725700       19.91047531147030       19.13543773811871
C           22.72020313056853       19.81093227955134       14.80480316528138
C           22.88213456712384       20.28377720510808       13.34614307730588
C           22.35272024993413       19.22047563557751       12.37977694343655
C           22.68379897990636       19.59896247885232       10.93661310698806
C           24.84095382975749       18.97310915758237       10.02353167202215
C           26.26024943029225       19.21430530707571        9.98835571912099
C           27.45395137446149       19.23474663619612        9.82848790007050
C           28.90090295756712       19.21169254532356        9.63658867228113
C           30.92316829171722       20.51896374455024       10.13607460637861
C           29.21051878975641       20.35024069735937       11.77905193962078
C           29.37887148095228       17.81704865938771       10.10357735796388
C           29.13928226234274       19.36006541813470        8.12321065006768
C           24.64547553998448       20.84276124591710       11.62393286707373
C           24.37897980869645       20.52550614600071       13.09890596835842
C           22.28335447213432       22.10425191629207       15.62083409938664
C           18.80050128175550       18.36407816786685       19.46981379487645
C           18.04123732933292       18.29225490169026       18.13166673633672
C           16.90257202545053       17.26251815584144       18.22516736097251
C           15.38922479184805       19.01003993243780       18.78336100039047
C           16.50175921569338       20.03403706084944       18.58518447822757
C           20.05355104802626       20.56608019033942       23.21204416417794
C           19.29741221890653       19.84389546576404       24.32094737486927
C           17.80642382218441       20.13994416307213       24.18680670795261
C           13.55595490622648       16.38245435380598       21.59282126803545
C           12.89093051482561       15.40764120893086       20.80575274233472
C           13.31204310204452       15.12266276833919       19.51142530154863
C           14.34798672914627       15.86090920200956       18.97727761282958
C           14.98476264720723       16.85836266223408       19.72838932239783
C           14.62257920651954       17.08177904581658       21.04249374243575
F           22.19051175059449       21.46386316376730       13.07204993582461
H            8.52915758149414       18.10571005821897       23.34548707712537
H            7.64996430640500       17.85465271734895       21.83458249148548
H            7.16283614396287       16.97990174346677       23.30096408091466
H            9.79232076989819       16.59987614034080       21.78981951341778
H            7.19959171625643       16.23237265165834       20.26874048505987
H            8.88003202702064       15.84213621447083       19.80438273899664
H            7.64741589804109       14.55204094488854       19.89350498196115
H            8.22366512220341       14.60969902850974       26.47249686312921
H           10.59122870768151       13.91446693052695       26.90853206225140
H           12.28271414290918       14.34580224487097       25.11967680579535
H           10.08552579284469       13.82424963265646       21.64768100155091
H           10.96757136673597       13.70662069234866       20.11541053559567
H           11.83226725012583       12.47255233883462       22.78176048343937
H           11.17713997977136       11.59595025085179       21.39632966804232
H           12.76062476207152       12.37880079542916       21.27985907798422
H           12.87712016179786       16.73858450898650       24.94039444071033
H           14.39330853157107       17.17523996184530       24.14058412370363
H           12.59595285546294       18.69949383600369       26.25013563372600
H           14.23441180810495       19.12807027786121       25.74765450514031
H           12.92034956282810       20.29604217471815       25.57757673487330
H           11.08671620146162       19.88736902811517       23.88017501231186
H           11.17972698848323       18.49909854536131       22.79285062692556
H           10.81647472413156       18.25567271431119       24.50069700204732
H           13.44426781443959       20.60926806641356       23.20723775214451
H           13.39742689956494       19.25296284245476       22.06053434754622
H           17.42677827988687       18.66752481188412       22.65369927570363
H           17.91658689589023       21.37116654915793       21.66325689273951
H           19.18346779765476       20.48774039846181       19.26071899375139
H           21.24028447210954       18.53532065701060       18.49295438297818
H           22.73809622569835       19.09730620610214       17.06510278868820
H           23.70482597703772       21.76927858313469       18.16715986870407
H           25.20466129960855       19.70106609254021       16.49664549675197
H           25.04686978577528       21.43097745648658       16.16773539637895
H           26.01630304619863       20.88055000620022       17.52930292483125
H           25.04119407678852       20.29548254335981       19.65080786975730
H           23.32171601654642       19.95399025063986       19.82238071183234
H           24.34897599115081       18.86967041463535       18.87450186453844
H           22.80854323707949       18.26516354918288       12.64105153052968
H           21.27182838199977       19.12968771065075       12.50001877310867
H           22.16367995911212       20.52690898193878       10.66895741225127
H           22.38097777646712       18.80020867259818       10.25392636065689
H           31.53641264955832       19.70721450608713       10.55473488291634
H           31.12944785584805       20.60988009925712        9.07417432738645
H           31.22168256063448       21.44830782002030       10.62006970839919
H           29.78890590085108       19.60352506001704       12.34746948786614
H           29.45483469299918       21.34061379229984       12.16941461254384
H           28.14678173966152       20.16514782944786       11.93560281762616
H           28.91517681169693       17.05317681122003        9.48333216801767
H           30.46141231916587       17.73930437356166       10.01084774814077
H           29.09206900024952       17.63870859161501       11.13963055030467
H           28.41596503197458       18.75569047287016        7.58295109192611
H           29.01192390046573       20.39875284429679        7.83265711208449
H           30.13644468175624       19.02424183708799        7.85510358839162
H           25.71884325646575       20.93132320303775       11.44788556939681
H           24.16020386290448       21.79010804124400       11.36087484051884
H           24.72995826606230       21.35134643403517       13.71594657202956
H           24.90927822999426       19.61776927544817       13.38863766311808
H           22.19089936408857       22.55965616404493       16.60143738942653
H           23.09183647738881       22.58557931292714       15.07190595628898
H           21.34730888890316       22.26835247357474       15.08896841861892
H           19.38226237331304       17.45114021648284       19.59292403767812
H           18.07161206363344       18.43006090734055       20.27429306996030
H           18.72716831989621       18.02066810209794       17.32238565938450
H           17.29218660248972       16.29541099417987       18.54396874956243
H           16.44706816683777       17.15969102968172       17.22540985805311
H           14.82600365027413       18.88191618995081       17.84253346433389
H           14.70623704289277       19.37690731828789       19.55196576181025
H           16.91453678981398       20.30815513723731       19.56228401655401
H           16.11334592862646       20.92843303786031       18.09609470896523
H           21.11216461887239       20.30891057781733       23.20911772514030
H           19.94842319854916       21.65094616814142       23.32825215174930
H           19.66734923039898       20.18377081873414       25.28665306475611
H           19.47002954209533       18.77041104187627       24.24079109462955
H           17.61690825512879       21.20472935605390       24.35876002466602
H           17.23122976285245       19.56752883513947       24.91374358387626
H           12.82802244223352       14.35958416492955       18.92034971990275
H           14.65901043351899       15.67699775541157       17.95860970226967
H           15.17135618732437       17.81345245554657       21.60758808507044
