151
 energy: -221.320830612700 gnorm: 0.009789315232 xtb: 6.7.1 (edcfbbe)
C            8.68689953473672       15.33604297726305       23.01987446426034
N           10.37619463911057       13.09426332082160       23.27362875049295
O            9.21317996486202       14.33135221046057       20.83414859299544
C            9.74633200417989       15.01951810153562       21.96487653582446
N           12.51578619151709       15.45766701149382       20.08021174387734
O           15.34320054357207       19.13049991442199       23.50576947179263
C            8.32381075201173       15.08890303804696       20.04089631113801
N           18.14054022055729       21.03268339488753       22.31379418152117
O           22.93074082105293       16.80705505634354       11.18620457064149
C           10.81375300928475       14.10241892232473       22.53058012075622
N           19.53453196581956       20.93160501086113       22.37106458985705
O           22.41702655119288       19.57725975102151       16.46767332233232
C           11.24488370647480       12.25043672213963       23.80123886408196
N           20.80055873408040       21.12427981879059       18.94834038630260
O           21.14476304575467       23.35303912067619       18.72888243031801
C           12.61592595737333       12.37238913203891       23.63655719691264
N           22.57417950390760       21.82383471799201       16.39009362185684
O           17.38570233977516       21.98770069204343       18.39529814943399
C           13.08044693110460       13.41289951434652       22.85317677978099
N           23.10576977958304       18.92487570015611       11.98211513285802
O           21.54408573433037       20.88202717031582       21.39153270038756
C           12.17563339212845       14.29717990969941       22.26495076663321
N           28.11097447735586       16.43168566018489       11.07166984907091
O           15.46211591659319       21.25800440430969       22.81268889830634
C           12.71281849906941       15.38654720006545       21.44184636708040
N           15.83393598483749       19.73873377610976       19.00640596381810
C           11.93477908262901       14.42437208291792       19.25955285204686
C           13.00092776656183       13.44907640990818       18.75908960906900
C           13.53785351578484       16.40417565548202       21.86486677852334
C           14.01475215887298       16.62475079797968       23.26553617102905
C           13.38461165835440       17.80959200541066       24.03355720029122
C           13.76993170686816       17.68479658827675       25.51082140464857
C           11.86240295640063       17.78684839101262       23.89388481073814
C           13.90410214984017       19.14948450145214       23.50086518739215
C           15.98806386256737       20.20333428881114       23.09121344815564
C           17.48754004154708       19.94190089458874       23.03063603355477
C           20.32323323754681       20.95990870425146       21.28522088059517
C           19.70335163570692       21.16853741388684       19.89276960653745
C           21.50960611037040       22.19494791453199       18.56843994370450
C           22.80932921271912       21.83132010749567       17.83301527627202
C           23.95425095078982       22.75186436630838       18.28259379617113
C           25.21616894439196       22.50539625864732       17.46265376214042
C           24.22135784037049       22.48324779122996       19.76434979991676
C           22.41048645803797       20.62396789887880       15.81503930871881
C           22.36531420727596       20.49063308867053       14.28335815383944
C           21.58516408992654       19.24019347700380       13.87097845074669
C           21.71480815091339       19.00047911739236       12.36802870743914
C           23.60957453571995       17.80958313675810       11.42657747841260
C           25.01194910753757       17.84162590508258       11.09531642458900
C           26.15742443725765       17.70486744126185       10.74992731927176
C           27.55970117838860       17.59070191250003       10.35329561126420
C           29.55066728133684       16.28409954448268       11.00199379883823
C           27.45036667502900       15.17928079876683       10.75509589953101
C           27.61132894005983       17.47413616195152        8.81470789163675
C           28.26474992682273       18.88274728471493       10.79275358459232
C           23.86620388156344       20.11133185129600       12.28954359641171
C           23.81694621467997       20.39992994283596       13.79218421535969
C           22.31792147203850       23.09748494841581       15.74743257175677
C           18.64184299672299       20.15879815261865       19.46438272420979
C           17.88867722998755       20.67143259859007       18.22281027384576
C           16.73237212962237       19.72452034734649       17.87455133821690
C           15.25600903016436       21.05954436399521       19.17695109852348
C           16.38022111682886       22.07267776893204       19.39450210120096
C           20.12338093510596       20.81109519317754       23.70144096433816
C           19.54026397755376       19.58818310112540       24.40258754269185
C           18.02380761288683       19.73336077161445       24.46166641998628
C           13.89592341466489       17.13544723338292       20.69444123951657
C           13.24872337181401       16.50803106771557       19.59921772491172
C           13.43165098112507       16.96131927643049       18.29751514301912
C           14.26808616215847       18.03711059356887       18.08591329967892
C           14.93148179499413       18.65655226641465       19.15466219209363
C           14.75160545798307       18.20301758995863       20.44635520286328
F           21.74958625478440       21.58113787753923       13.66403332242422
H            7.95891982147473       16.04233103530701       22.63241775915143
H            8.18613062443807       14.41621050415162       23.30841756659710
H            9.16363600650283       15.77054996241456       23.89363435868093
H           10.21705673385712       15.95439289695995       21.61806102186833
H            7.35267471315682       15.21050667219190       20.52758950257829
H            8.74641445803235       16.07369644138302       19.81697482448909
H            8.19568956487100       14.52581900215038       19.11936257683935
H           10.81275981267507       11.44693223967164       24.38383532658310
H           13.29702243483556       11.67840663430322       24.10012189112474
H           14.13809212117305       13.54537508208922       22.67599341465905
H           11.18290198217533       13.88975401315577       19.84365872448304
H           11.43457377824335       14.89898125111554       18.41054757823943
H           13.75532083010677       13.97707191740309       18.17777522317408
H           13.48936296404012       12.95971094071690       19.59977296392443
H           12.53952940412963       12.69144230458145       18.13275834621625
H           13.80262890085970       15.72177772546093       23.84032198815003
H           15.09618972821948       16.77186821070007       23.24809598611465
H           14.85050773455368       17.66524299487157       25.61783912785512
H           13.38035497318124       18.52618119697095       26.07862078544045
H           13.36156450608562       16.77040669127025       25.93149939044565
H           11.47585480816816       16.83383827086191       24.24723549905114
H           11.41292134705064       18.58437652764378       24.47904933066998
H           11.57010791402795       17.91068437413815       22.85425412858831
H           13.55706339682806       19.98463222981817       24.11895488768372
H           13.56609366290148       19.32058415881263       22.47297561758211
H           17.65084702239957       19.02109275017184       22.45822618258834
H           17.82958810749062       21.92021713604060       22.70514744169585
H           19.28929783220252       22.18357703759719       19.85913689720347
H           21.21583601141875       20.21221394524610       18.81321712341635
H           23.08229673017611       20.80303699225790       18.09137126310988
H           23.63918208152624       23.79523324226480       18.18179618420965
H           26.02981834724440       23.11047297032900       17.85218157355159
H           25.50311448514682       21.45782359646148       17.52526724402725
H           25.06537335791666       22.76373768172622       16.41805596661578
H           24.55126251918592       21.45715286806650       19.91569661564745
H           24.98973856696891       23.15680541688311       20.13413588812819
H           23.31857423277270       22.63305835919175       20.35519066657157
H           21.97685545242106       18.39406001937457       14.43481012211173
H           20.53401326363263       19.37055033693225       14.13180935315863
H           21.24298774542013       19.82501826731471       11.82278188099554
H           21.23243834705115       18.06163443219098       12.08869293333874
H           30.04181316608556       17.16189794497228       11.41090425845971
H           29.82273666330146       15.42753623124010       11.61699263631910
H           29.92167255915896       16.10113700088124        9.98174925807611
H           27.79094417757833       14.74270732020481        9.80578708240850
H           27.66623848081002       14.46719475299543       11.55014120920310
H           26.37153934517751       15.32286938270994       10.71207895272878
H           27.20705766949863       18.37756858925147        8.36568625656661
H           28.64036201786420       17.35131267029618        8.48628071318041
H           27.02260396109092       16.62697201152311        8.47117112999869
H           29.25126206636007       18.95307607521628       10.34450334155820
H           27.68088792420339       19.73989095255167       10.46912523251906
H           28.35326654706767       18.90591481457997       11.87549410622573
H           24.89958348385964       19.97144345335237       11.97045732459953
H           23.42859032688362       20.95633100792974       11.74584848966273
H           24.33718125635014       21.33470324122434       14.00079186038432
H           24.30184876974753       19.59529171918505       14.34591065251440
H           22.44959210514367       23.88737691187275       16.48495651398000
H           22.99810823659208       23.26518968836468       14.91053430880881
H           21.28813072534820       23.14868015187937       15.38408516250376
H           19.11986489235725       19.21262867525661       19.21390508643779
H           17.92294164445469       19.99578801055138       20.26097442191843
H           18.58004956545353       20.75873661915383       17.37730611662207
H           17.10292447519934       18.71163167489685       17.71952314911164
H           16.25549328972801       20.08329476377394       16.94617244250993
H           14.66074801822840       21.34901909756405       18.29155697616328
H           14.60748097808872       21.06064784611696       20.05352840364875
H           16.81593653783418       21.92028816090848       20.38747553386196
H           15.99421682073392       23.09081269435278       19.32530322510994
H           21.20108273494408       20.72644136967300       23.57046478406833
H           19.89637867956355       21.72077262079245       24.26828109541968
H           19.96113941234695       19.50443582502240       25.40462878782797
H           19.80768816088456       18.69177229694627       23.83911578799141
H           17.75522960057885       20.59333483948062       25.08165765004966
H           17.56116172000126       18.84337198180671       24.88712951519924
H           12.93724125264470       16.48497666769433       17.46465797247218
H           14.42246266908156       18.40166740167587       17.08106372217744
H           15.31777868660615       18.67721907100884       21.22775576015001
