151
 energy: -221.322473068873 gnorm: 0.007833668433 xtb: 6.7.1 (edcfbbe)
C            8.09801961455429       16.16606409308287       22.94274561846079
N            9.42842672540399       14.11585659225221       24.36104912115723
O            8.79087428858781       14.31139965753544       21.49081799466322
C            9.25186021179198       15.38094281418317       22.31884286072871
N           12.36270155240146       14.93667623909231       21.04138383328419
O           14.73301348834929       19.76379238067287       23.11621172143357
C            8.30771667240103       14.71172218053681       20.22684958104947
N           17.70681785951885       21.27831310829033       21.84829187669863
O           23.58796535951852       17.81879270605259        9.94045952373611
C           10.09861598695182       14.73353504725167       23.39748847271176
N           19.05226153590518       21.36900633302298       22.22517943157249
O           22.47507514596931       18.82999695134851       15.93787381218800
C           10.09083620426322       13.50944778695722       25.32852554405060
N           20.94498394618319       20.21701067961742       19.30430553147795
O           21.20179208157410       22.25378184039913       18.37473075490573
C           11.47560765185436       13.49927058940715       25.40851919157922
N           22.97983372183067       20.94781583390068       16.52533924023460
O           17.91605827028875       20.19372140219139       17.79142546892002
C           12.18288704980142       14.14576124898752       24.41421393214438
N           23.86519081233619       19.41253813890975       11.52922471257280
O           21.22534656517986       21.06147642221982       21.78353929385242
C           11.49810788421735       14.77004511878954       23.36911497942673
N           28.51368181199612       17.88667954965755        8.44129552022925
O           14.98165452352477       21.49994919371303       21.72089229976263
C           12.29706661467695       15.42550884929134       22.32830462329577
N           16.17736991853855       18.39853722076190       19.04869836634414
C           11.81754270544685       13.67838442459903       20.59552446978205
C           12.77887520737002       12.52786259211738       20.88927702726055
C           13.14573970878920       16.49829127160287       22.47886705994568
C           13.36662510797994       17.29530823354564       23.72450771187622
C           12.66312460514509       18.67112091007189       23.77560859035970
C           12.74989543638563       19.21087704567408       25.20625291908326
C           11.19500506793377       18.52723734275066       23.37143311450932
C           13.32745005088168       19.67206639336279       22.82352570846140
C           15.44084433629258       20.67758971557272       22.48245501746356
C           16.91160372507023       20.59506084557781       22.86441589123103
C           20.05450158270419       20.97497274813407       21.42519913182968
C           19.71240595466392       20.50682445841123       20.00559939855282
C           21.60220124895988       21.11150893902025       18.55783679000754
C           22.88955729364565       20.56179186234951       17.93024118364071
C           24.12953152820554       20.98016034457489       18.74917028349882
C           25.40824982448166       20.58496923839090       18.01432435894262
C           24.08695364546603       20.31092684152743       20.12171852219470
C           22.74542293090958       19.98994666267861       15.61776258930965
C           22.95602808218426       20.27617199942433       14.12077591032897
C           22.13667007476649       19.31241136361099       13.25960773693144
C           22.44721107926201       19.53892594773497       11.78158241109065
C           24.32546365516747       18.54375717005029       10.61060775505244
C           25.75228606002803       18.53327080753249       10.41569755217509
C           26.90700041710674       18.45187201646963       10.07971620044618
C           28.33992036733197       18.42567350109650        9.79499294100393
C           29.87976116512053       17.61046774947700        8.04858475500574
C           27.82751715015203       18.64738537497771        7.41617822210609
C           28.88489320138867       19.85794420514091        9.99081827878109
C           28.98008379989339       17.48621733918779       10.83037485822382
C           24.69514584160564       20.30516308875620       12.30158006905245
C           24.44711154415072       20.10654386799247       13.79907022447957
C           23.13932870434654       22.35494542751604       16.21739729445057
C           18.79824249242836       19.28759910024447       19.90755349932089
C           18.40656449238228       19.02860525693796       18.44086135670577
C           17.35683114874383       17.91137095302408       18.36741187260687
C           15.62428575691637       19.54102602543161       18.34704540693943
C           16.67673601667271       20.64885588240930       18.31115158170428
C           19.32321613934018       21.97958052114902       23.52027782497933
C           18.57970984105775       21.21693917707807       24.61367159705130
C           17.09072894836821       21.19087391467609       24.27585299704645
C           13.79068065561863       16.67286555011682       21.22008685173659
C           13.28709309181093       15.67162911213889       20.35254337665075
C           13.74650897279448       15.54956108483534       19.04515652066151
C           14.69870567333468       16.44204954363934       18.60158991671764
C           15.20947373342118       17.43482217854205       19.45003943826896
C           14.77484464543935       17.53889628047781       20.75399391340158
F           22.56148692073228       21.57212272585970       13.77057314063022
H            7.48626895176357       16.62894043286970       22.17322305017870
H            7.48919639001870       15.48625417648733       23.53111890718426
H            8.49307631708253       16.94459779238964       23.58810998482490
H            9.88174131424192       16.05145262376413       21.71295137823679
H            7.97085041586655       13.79759748638387       19.73874710829264
H            7.46682802157490       15.40929529749851       20.31178441913370
H            9.10892358405435       15.17885326683804       19.63520088990784
H            9.47750122189199       13.01569473110060       26.06934226363509
H           11.98069620998432       12.99492345013509       26.21629419940898
H           13.26285068283331       14.16418501853887       24.41451692140402
H           10.86312142106682       13.50323935663660       21.09691193037579
H           11.63591137729975       13.74918350117573       19.52033269860026
H           13.74109833753437       12.70899032247135       20.41524236766553
H           12.93194436088332       12.43143074709446       21.96177066939213
H           12.36791163736812       11.59684982265512       20.51130108014493
H           13.00080603380398       16.71296622781612       24.57160414808288
H           14.43757809913410       17.45728544637228       23.85615092265575
H           13.78691459031990       19.27351592549125       25.52653650522308
H           12.30960528706525       20.20298714448922       25.26387631151952
H           12.21258034941467       18.55715977035486       25.88746446274685
H           10.71281549430820       17.78978766254313       24.00788872385332
H           10.67213609003759       19.47398533385913       23.47435376085409
H           11.11230311054597       18.19611869884783       22.34013247970216
H           12.88197041638549       20.66803123876352       22.92832577989923
H           13.21417710374575       19.35756154759896       21.78071740903983
H           17.21542716578795       19.54233561312178       22.87928263069539
H           17.31629336492389       22.20907097659441       21.68532046700885
H           19.25414486896068       21.35955466929303       19.48957538674144
H           21.36441169283061       19.31791733307809       19.48838174281315
H           22.83701076122197       19.46856388505926       17.92127780513034
H           24.11090378672025       22.06373778394893       18.90043322651569
H           25.53262546692854       21.15300690881506       17.09788463821314
H           26.26810000393275       20.77112330339453       18.65204015875593
H           25.38265709541239       19.52649762106218       17.76530379931876
H           23.20589481467477       20.60988040658554       20.68443238854669
H           24.08965445360953       19.22821354940156       20.01387921209221
H           24.96368744891052       20.59873737876829       20.69525307394539
H           22.38009338152627       18.29440534912084       13.55999539790272
H           21.07459213504374       19.47953139026705       13.44112234045132
H           22.12204349241274       20.54422298947222       11.49207311749313
H           21.92915561708892       18.80337825088176       11.16364136594611
H           29.85338628833211       17.15460977526836        7.06083874264801
H           30.50993117276275       18.51061899868678        7.98760693059172
H           30.33343868344813       16.90262080632029        8.73549907787507
H           26.81677813978753       18.87941653082575        7.74929583005871
H           28.34270740722527       19.58411453879607        7.15222181391684
H           27.75843540639396       18.03060473803233        6.51972476461356
H           28.79902246935269       20.14172239821972       11.03617458526804
H           29.93284440605167       19.89836170635226        9.70447851590237
H           28.32463351801456       20.56976247915653        9.38988689896094
H           28.72710242918343       16.45593523731603       10.59760730067796
H           30.05943686583927       17.60609286740779       10.83826389042485
H           28.59877405503081       17.72372080266426       11.82045916280734
H           25.74269540767463       20.11346089389816       12.06618370009545
H           24.44924332034380       21.33940498605727       12.03182456879840
H           25.04291131695441       20.82471492228922       14.36133577858052
H           24.73308970128018       19.09823337137266       14.10196171765733
H           23.36597937136666       22.88454466669220       17.13550494502464
H           23.94254745397896       22.51362289496144       15.50059592851192
H           22.21465921029138       22.77071713753578       15.81720817737260
H           19.31148140558039       18.40748710980982       20.29412275770813
H           17.89138746593987       19.45333597370422       20.48262059857527
H           19.29021495448380       18.75613733680986       17.85256748509987
H           17.71947188985703       17.01721634331310       18.87449982327799
H           17.17219228961415       17.67258695994021       17.30494564266832
H           15.32380715668770       19.27858186574408       17.31490354956282
H           14.74665400005113       19.90160442398759       18.88724254547307
H           16.80764243030151       21.05187792722060       19.32195705019092
H           16.36595178296062       21.45178418097626       17.64171808452175
H           20.40320396343512       21.95983967308818       23.66976780601790
H           18.98225445505309       23.02198424789356       23.48893330815724
H           18.74312551451475       21.70635735149076       25.57238192417032
H           18.96661298202627       20.19844026418721       24.67183213068444
H           16.68859416203928       22.20752372344290       24.29097891305160
H           16.53760907162912       20.58796330245920       24.99501582809535
H           13.37262704419922       14.78056774808841       18.38679295003482
H           15.06497880158385       16.37208119166434       17.58768917434420
H           15.22638050900220       18.28132117966543       21.38786639705287
