151
 energy: -221.322156886392 gnorm: 0.009557032845 xtb: 6.7.1 (edcfbbe)
C            8.41340628693215       17.09620947415915       22.42655465320754
N            8.85705218438111       14.70740679200281       23.87679399799127
O            8.83755844685419       15.19182595936607       20.93782062530942
C            9.40191364627988       16.03697135763614       21.93687056933103
N           12.31151230952150       14.72848946721174       21.08304673716230
O           15.05374827515124       19.36787251601415       23.15305587470469
C            8.72405687133771       15.78687112946407       19.66543554433049
N           17.84005786856420       21.00537107332240       21.66353352445458
O           23.27056102125724       17.87872987533674       10.07868139424116
C            9.82728688896357       15.13440623586725       23.08137594982212
N           19.14544556788197       21.34043090902611       22.03883948747256
O           22.82767523509419       18.91950505050430       15.82884360252111
C            9.15616030584617       13.92754422558245       24.89927485156100
N           21.15957092787073       20.01768904795444       19.29126510827181
O           21.10024694933218       22.07296168586590       18.38260250470042
C           10.45235236003990       13.54178713418649       25.20755990042134
N           22.94423819004533       21.08168901297249       16.46148718435720
O           18.39387984824612       19.29661009281574       17.84023393204795
C           11.47018708036665       13.97421143757047       24.37828292342053
N           23.36563041877133       19.76133318385429       11.33976765526564
O           21.35324110417865       21.21442081111392       21.65351526549181
C           11.16882957730136       14.77685948537129       23.27854974899519
N           28.37519822343517       17.80672652783206        9.14533467544680
O           15.08578981627096       20.87759255338941       21.49739733067502
C           12.24538870745558       15.20315784866500       22.37660677646550
N           16.59518065998110       17.72444742021055       19.31392996874657
C           11.52857952053569       13.64402883412646       20.54365071918735
C           12.20277432508352       12.29532207398887       20.78952879339016
C           13.28510801641131       16.07103237342222       22.62221275016242
C           13.63087911859264       16.77385814506398       23.89682643401286
C           13.10043384816550       18.21779758836190       24.05360961279600
C           13.52566227810441       18.74793990349660       25.42534685334500
C           11.57707258179244       18.23551130000682       23.94845265001893
C           13.64899721497926       19.13986494635490       22.95764599838752
C           15.63870443065085       20.26247866851437       22.38205699564243
C           17.08582430730223       20.47913248073118       22.79544320200961
C           20.20607901165919       20.93261658558824       21.32596139350809
C           19.91849657877119       20.19160131523974       20.01424401445443
C           21.66872551908574       21.00184172038157       18.53974255741897
C           22.99505705945486       20.65268363813618       17.85725003799896
C           24.20089205367492       21.21942168052101       18.63262893185987
C           25.48597232577839       20.99557980727431       17.83752930303302
C           24.29284365735979       20.54489078489571       20.00063860543089
C           22.79802248075206       20.12056842576898       15.54100066960597
C           22.71703907413416       20.48054358316789       14.04622180407841
C           21.94757844391632       19.39299944665042       13.29082901943822
C           21.99482926310422       19.64729734415721       11.78569352803059
C           23.90981606411223       18.82468901894587       10.54430488422951
C           25.30508771469142       18.99910550509633       10.23304935544471
C           26.45487360672231       19.00401370223963        9.87109166068233
C           27.86592479661780       19.13247690714631        9.51956814802617
C           28.09302847593056       16.76331874270931       10.10858498724368
C           29.77126535634770       17.77714196425337        8.76237917968536
C           27.92315954068165       20.07422355449038        8.30276971019601
C           28.59043287660770       19.78344577067879       10.71735735804564
C           24.09861585523423       20.82987367760170       11.97249389897780
C           24.13986778629750       20.61668762519086       13.48775887539570
C           22.86873685812195       22.50431526667590       16.19652883250555
C           19.20154207191988       18.84953231567949       20.12965704660712
C           18.86740645939356       18.29467716792755       18.72861215575775
C           17.84223472129239       17.15659716078128       18.84079257391483
C           16.09236207252530       18.69792896011238       18.35609691635708
C           17.12532074592080       19.80863434520712       18.21070698018537
C           19.28972069866308       22.26637494355738       23.15699723903656
C           18.55711131134055       21.72399817315279       24.37921476832240
C           17.10320223221604       21.43389747592754       24.00601649439804
C           14.03144433035436       16.14550489194335       21.40823700071237
C           13.40029462322332       15.28429219665839       20.47671559415247
C           13.88628827930942       15.14483817910918       19.18076268898259
C           14.96286595319756       15.91871260343657       18.80779526671811
C           15.57638007488432       16.80065800830826       19.70884065701871
C           15.14422476798329       16.88504426341754       21.01488103896119
F           22.03508497831196       21.68157184346516       13.83521866230533
H            8.19615635101697       17.81234201719155       21.63866346133972
H            7.49523164077089       16.60490239471303       22.73561087672299
H            8.83602888868942       17.62535977342777       23.27395633504906
H           10.29691685207145       16.52431980441269       21.51480689706678
H            9.70570305305274       16.11887034662666       19.30112654961499
H            8.33107220746777       15.01226426134248       19.00944747088989
H            8.03757183891597       16.63901449524075       19.67233668963711
H            8.31504424178877       13.60514354965026       25.49651283805538
H           10.64968264564946       12.91445445970935       26.06180662482176
H           12.49488848271347       13.68618746087406       24.55862381275482
H           10.53850215771732       13.65866049089255       21.00340686245562
H           11.40618090959565       13.81141078478059       19.46972049542971
H           13.19814220611162       12.28474940140651       20.35198823488295
H           12.28900419186113       12.10685955259960       21.85711549829713
H           11.61294829317088       11.50116410863297       20.34196885259867
H           13.24335268869508       16.19333891216867       24.73599654401803
H           14.71927516358378       16.80738780363749       23.97748260337057
H           14.60586008083706       18.70845468405315       25.53009340234454
H           13.20151246481108       19.77824816087475       25.54751135270624
H           13.07516243049912       18.15033960725734       26.21292845981879
H           11.14347246208015       17.52526488190617       24.64744953304605
H           11.19028901850710       19.22655610809742       24.17572830755219
H           11.26521442656398       17.96710520971104       22.94425106102222
H           13.14087703006741       20.11004691407491       22.98260056315600
H           13.49859746325181       18.70574765423657       21.96475845791715
H           17.52581905539254       19.51900670106035       23.08875461110320
H           17.34872385832676       21.81439806017436       21.28096042507980
H           19.32138257380961       20.88386809981395       19.40880944327277
H           21.71820533112373       19.20591410797038       19.51266620810501
H           23.09599612772070       19.56340631048117       17.81631076511274
H           24.05373331984075       22.29116422701655       18.79809736560955
H           26.34349058423613       21.31013044026827       18.42614149405338
H           25.59637613952451       19.94051902561187       17.59635627800053
H           25.47846674374217       21.56062319342952       16.91078529210830
H           23.42700634804444       20.78715361797518       20.61539963205111
H           24.36462663772464       19.46383007490124       19.89030187794685
H           25.18402990877397       20.89176635747947       20.51808391895094
H           22.39377657189734       18.42876831183132       13.53387215153129
H           20.91273013956505       19.38673734746969       13.63618445024932
H           21.46924928048802       20.57774136360716       11.54994835802865
H           21.53142633367731       18.82073732849578       11.24450652927798
H           28.32564363317896       15.80286339394580        9.64960867756309
H           28.68493324568459       16.85161250795870       11.03337787456804
H           27.03500122067798       16.77399175952518       10.36508785530513
H           29.97436716447937       18.53783814658263        8.01436615598930
H           30.45671976799865       17.91301277104144        9.61307815685239
H           29.97563086184316       16.80357362390475        8.31834963827126
H           27.60065367205127       19.53873744390647        7.41478321748668
H           27.25942224121017       20.91987770932908        8.46309224401225
H           28.93020733660549       20.45215774871696        8.15345013413410
H           28.51318518453875       19.15398318163756       11.60003202532595
H           29.63871634615685       19.93756076012002       10.47829214208059
H           28.13857525572196       20.74681978146614       10.93712978847649
H           25.11054040491557       20.86441537251504       11.56706739548590
H           23.58891422403744       21.77552135530061       11.75670243456278
H           24.64910427119051       21.45649571630561       13.96044037165773
H           24.67754444798879       19.69873437013053       13.72693176532304
H           23.17524088777781       23.03651523534051       17.08945008890294
H           23.51957951568856       22.78386312926705       15.37197293401377
H           21.84652264655271       22.80615258967249       15.96645529081877
H           19.83623747936236       18.13239687122640       20.64875319697214
H           18.27307481267323       18.97306560987908       20.68281616921185
H           19.77679823129494       17.92849500417805       18.23923701599291
H           18.18886912113967       16.41235135623152       19.55853495462607
H           17.73835275728872       16.67617198229006       17.85156451165924
H           15.89731701584794       18.24060267221098       17.36843627891771
H           15.16189707394129       19.11906448416708       18.74127473413612
H           17.18720198823413       20.35426345124810       19.15905476224444
H           16.84650162498697       20.49773177515487       17.41295560780772
H           20.35625608613035       22.38758707180348       23.34077805481497
H           18.86586095242958       23.23255424320461       22.85890809414422
H           18.60264411767379       22.45756420158726       25.18476815614445
H           19.04236539688093       20.80742313190583       24.71705836495234
H           16.59611684511670       22.36393665616252       23.73518039431852
H           16.57255168693542       20.97718107448150       24.83942281680438
H           13.42756634848270       14.46916381805963       18.47573362630169
H           15.33712834980931       15.85465701126496       17.79562543255043
H           15.65912450758635       17.53856036627019       21.69767941849904
