151
 energy: -221.325720134842 gnorm: 0.007924940562 xtb: 6.7.1 (edcfbbe)
C            8.91558266390017       16.65989923111048       21.35664699519462
N            9.58093345144102       14.20274670511997       22.53693093161473
O            9.73905733998305       15.12199067683107       19.63890781288558
C           10.08812079221378       15.83599826441222       20.82598536501313
N           13.12886828870983       14.97697251517697       19.95672353393903
O           15.32094023927915       19.31338536990274       23.02667747875779
C            9.82549104799854       15.89242054209044       18.45985271425705
N           18.13593082861713       21.34729965145320       22.22201594383439
O           23.45374784932481       15.26318057087652       13.28021907246099
C           10.53703752480816       14.81174809542139       21.85270462155775
N           19.44791675486751       21.49257097697091       22.68685313705503
O           23.85766311869287       19.29926558562505       17.70349687310838
C            9.91029942617905       13.31472643555841       23.45867601007013
N           21.49291766771802       21.03176282884945       19.69704635009148
O           21.66214856736325       23.27219021967309       19.44105921717109
C           11.22274731985890       12.98477707719148       23.76142256878146
N           22.88701711741478       21.26613959635093       17.20219002950530
O           18.70009552758994       20.80015063551048       18.01055614636074
C           12.22933457112570       13.61175394959629       23.04862974994735
N           22.72392485179838       17.39135911028647       13.57947827155312
O           21.65934292665487       21.37229378792987       22.31018030870431
C           11.89737449674920       14.53816125022207       22.06301238123583
N           25.95041095853255       18.95473548764766        9.67422831192072
O           15.38474829045566       21.32339407757703       22.03541690316325
C           12.95190332393449       15.21738841605476       21.30248784171487
N           17.02551695145153       18.75758929465592       18.95414746708578
C           12.58885411714107       13.84839487639091       19.23912785162942
C           13.50278198385482       12.63081566000262       19.36513786293824
C           13.83343092206303       16.17797989695564       21.74203245658950
C           14.03161953444406       16.65595428267142       23.14578728758911
C           13.35146880390675       17.98757139665354       23.53793169755924
C           13.59531488630849       18.23322855380890       25.02925535115025
C           11.84994083350993       17.92305679822539       23.26695531922017
C           13.92416038738936       19.16054293163188       22.73387536879554
C           15.92524513449104       20.41370698272325       22.62450371054329
C           17.38329517334840       20.41499250525709       23.05521954559092
C           20.50848050872525       21.29266523987256       21.89052279810512
C           20.23429636139553       21.03611549712992       20.40463320797011
C           22.11126254003528       22.14655865591261       19.28688609049009
C           23.36876034631262       21.83314968587304       18.46408497070741
C           24.28477928630465       23.05358382770100       18.30504596496809
C           25.34807918704503       22.80246861183032       17.24038750285227
C           24.92899417557488       23.33965003484676       19.66102615342822
C           23.12317125187898       19.96785716239267       16.97663637900400
C           22.51752714462929       19.27844105236088       15.73955042380297
C           22.44372823988400       17.76595131334549       15.97538957053978
C           21.91621451767485       17.05515201293283       14.72960250185848
C           23.46623911914081       16.45443137353952       12.96216076460633
C           24.28173511830305       16.92095822014838       11.87127473210493
C           25.00765057840357       17.18439649431549       10.94733269692218
C           25.88693596706359       17.49436229777269        9.82418217137732
C           26.71777980656933       19.42287679735786        8.53824613450379
C           26.35606479083890       19.65883940916012       10.87429082327211
C           27.24386306396228       16.81540608778542       10.10182650964065
C           25.23531501114443       16.86240782550220        8.58216614745082
C           22.76880547669363       18.80389525752275       13.28930272234243
C           23.34847463677283       19.56836765956508       14.48430198132108
C           21.96718815192763       22.09867503304912       16.45145879152810
C           19.49794009577755       19.73660724761991       20.08852883110974
C           19.23117785427839       19.61192769678960       18.57549442425686
C           18.28118803161279       18.43707340273841       18.30999531751850
C           16.43300578625214       19.93069140113017       18.33000752684555
C           17.39528664406059       21.10701501649638       18.47747701576274
C           19.61034921747714       21.88691276942094       24.07874126975575
C           18.90466189686151       20.87865044501673       24.98095311285395
C           17.44243792200695       20.76891279799077       24.55470409212451
C           14.59402957712383       16.56454577838147       20.59858700608130
C           14.13533220359884       15.78319092908981       19.50758643705951
C           14.67968770629171       15.92928526574783       18.23591217637972
C           15.64596945913897       16.89334460466108       18.04735435633909
C           16.09297691009414       17.68754538890500       19.11249347104577
C           15.59942771816569       17.50295285650042       20.38637635202099
F           21.20786889271713       19.72264441887101       15.52944693953433
H            8.61148049561967       17.40441455532061       20.62579516900559
H            8.08257232801998       15.99619447581051       21.56367317435009
H            9.20693903655963       17.16442074036163       22.27226586004064
H           10.93806723874170       16.49547780454461       20.59261364978221
H            9.45382998383233       15.25364815762927       17.65929578784042
H            9.21268748787712       16.80156624603808       18.51581930334442
H           10.86877097403817       16.17963045901692       18.25763388949403
H            9.08024209660172       12.84777327446293       23.97024956864174
H           11.44747985886618       12.26003414760785       24.52726670684556
H           13.26818003263370       13.38704487866309       23.24013856216369
H           11.59644831497575       13.62179052708534       19.63591705421669
H           12.47960051533212       14.12670778879080       18.18800496625104
H           13.60608701210827       12.34134973110815       20.40859367879332
H           13.08650790896295       11.79513796143686       18.81116691499925
H           14.49050246069033       12.85955569320661       18.97013642516702
H           13.65520646240165       15.88991219614938       23.82640371982008
H           15.10440631772506       16.76843327629829       23.31674790674647
H           14.66111092565333       18.24955632570117       25.24109427622779
H           13.16653124644575       19.18530983484712       25.33289173249905
H           13.13528160771596       17.44542109955054       25.61962912253345
H           11.66151130903104       17.85457353619860       22.20016514950483
H           11.41974564798110       17.04991096547468       23.75045183061508
H           11.35340578232929       18.81171556605086       23.64852827846022
H           13.41164738427114       20.09462963615043       22.98605987930752
H           13.81292018383562       18.98763000963657       21.65937878258262
H           17.79819533493130       19.41319080791068       22.90901189183653
H           17.65452656862577       22.24820525023407       22.21542200168836
H           19.66519427708432       21.89519239086495       20.02989411689758
H           22.00229198188396       20.16187382575635       19.68141450404285
H           23.93702773306198       21.03774453654974       18.95787842701230
H           23.67719857975372       23.92195326796929       18.03140223124609
H           24.90349560445611       22.73028299148338       16.25217387962645
H           26.06776964464934       23.61616158354997       17.23783110645777
H           25.87452365073342       21.87322737833755       17.45094512216809
H           25.54086768497481       24.23559465333365       19.60658850828891
H           24.16291912498253       23.49074799275949       20.41816189184226
H           25.55777140071226       22.50628051504972       19.96716273589477
H           23.44265197351021       17.41167468198619       16.22678212814084
H           21.78690765678863       17.56286083234399       16.82133637899481
H           20.88359919761258       17.36499414566838       14.53822294726273
H           21.95194312341383       15.97295970711745       14.86436782285687
H           26.38501117667662       18.93532295769808        7.62690724704913
H           26.54023471197230       20.49299641142409        8.43621107858210
H           27.80160616044974       19.26879393479466        8.65488585278718
H           25.82470232630629       19.25873659259315       11.73482172026421
H           27.43706633783849       19.59819539656047       11.06915965759216
H           26.09276773642524       20.70961038045246       10.75885845024872
H           27.92582563978524       16.98972065718307        9.27377257024597
H           27.68654097017580       17.19987165226989       11.01806395545708
H           27.09756721208337       15.74450018937115       10.21532905668239
H           25.94884580751850       16.78691684082328        7.76665160604346
H           24.88873398737545       15.86119573427810        8.82665488163628
H           24.38435999280317       17.46046668573999        8.26823695845488
H           23.37063440174454       18.97567843201190       12.39722444848985
H           21.74642483113990       19.15073632286291       13.10513923178122
H           23.35499565399281       20.63458885117965       14.26348682618718
H           24.37181403817744       19.24582234649247       14.68048433353081
H           22.09100651361109       21.95671364997159       15.38198956795692
H           20.93103220286694       21.88150578242290       16.72172815942120
H           22.17325498134886       23.13672139105119       16.69469553103305
H           20.09941816849042       18.88552753077315       20.40716215691361
H           18.54229221128870       19.71357519651912       20.60636023432361
H           20.17106484718112       19.46313036650978       18.03359563980206
H           18.68136755439555       17.51898177795101       18.74142548128277
H           18.17995053217383       18.30840759006744       17.21820610496354
H           16.21709993202161       19.75254284466306       17.26185854198101
H           15.49958470402204       20.17088911649251       18.84412865244840
H           17.42738031146551       21.41128505077375       19.52936002711510
H           17.06480497017170       21.94971147641429       17.86866683917035
H           20.68098485050190       21.93289004118029       24.27735724572510
H           19.17511790120457       22.88424714760782       24.20892205140688
H           18.97563308036463       21.20363983376908       26.01742819156452
H           19.39389751933780       19.90839812869281       24.88586219398626
H           16.93358190435663       21.72244155467333       24.72080802379879
H           16.92864275594902       19.99852724922199       25.12812040995209
H           14.34600441634749       15.32095999898905       17.40911790536961
H           16.06274089698328       17.04389953874460       17.06221029031995
H           15.99823174302266       18.10054909415252       21.18737793682775
