151
 energy: -221.323925748233 gnorm: 0.008948251836 xtb: 6.7.1 (edcfbbe)
C            8.28278871880703       16.23021522996958       22.06658593547499
N            9.37266273016405       14.34111630231460       23.80235182737070
O            9.32520165909630       14.40722320709898       20.77818005505029
C            9.55945955679313       15.48277031686114       21.68523588596717
N           12.81535561277064       14.74528917701763       20.90084894701468
O           14.99336502188027       19.67903738513443       22.92487479669850
C            8.85430238092072       14.79537335395907       19.50527399396902
N           18.16757044309610       21.03184177799053       22.03483406947418
O           22.60330286073112       17.71636099945486       10.46814696993724
C           10.20440036571226       14.85590065017481       22.90679417843391
N           19.47738738237177       21.01704186644730       22.52593043791192
O           22.43692534913998       19.14105709070115       16.04956178439481
C            9.86037788556436       13.76854664312812       24.88664275193540
N           21.39277278545189       20.25320873248870       19.51934166285905
O           21.23376551667901       22.34071628197418       18.68384222519012
C           11.21807935569724       13.68996629859460       25.15883962769366
N           22.79763970721485       21.31394571928196       16.52729746644923
O           18.64613014893330       19.86272466030646       17.94050769890294
C           12.09225634030069       14.22476983504535       24.23161595971722
N           22.75662064060691       19.73763577095982       11.48853910743876
O           21.66336877357458       20.63415274092912       22.15666659693752
C           11.59380504238776       14.81217538013459       23.06832469808014
N           27.67317403153640       17.49495845462868        9.35214579213996
O           15.51479507542842       21.42417737530814       21.62038325419317
C           12.55426028453858       15.36330659236289       22.10220837280037
N           16.85169461562749       18.07162676077743       19.12733190892536
C           12.30993218385736       13.45872053300450       20.49366237441384
C           13.18895144365656       12.32573336230773       21.02212303009931
C           13.37138365430699       16.45826721934908       22.27101173627478
C           13.42628816121431       17.34568606466090       23.47320574103973
C           12.78701211219167       18.74773724473123       23.33654918657118
C           12.69114686194908       19.37346659114608       24.73083321480598
C           11.39494105611337       18.64329525863934       22.71612928657493
C           13.63756581583926       19.66034207307997       22.44624536330459
C           15.82805546663219       20.55676281843094       22.40627950638964
C           17.24074580077473       20.35481940863599       22.93358946994859
C           20.50591167394797       20.65342817513657       21.74576831731153
C           20.17452858812209       20.31636986342660       20.29176758179616
C           21.81246948998752       21.26389470375932       18.75208171142528
C           23.05606631089220       20.94094998742077       17.91631799690339
C           24.32128061905459       21.58943238741286       18.50485865780744
C           25.52590356261250       21.30312601319945       17.60969150477350
C           24.56191580430847       21.04367649617274       19.91193209518060
C           22.47414847620018       20.32041883880848       15.68832601806923
C           22.29065485539855       20.60869488288314       14.18809120783829
C           21.44377060919578       19.51208397239228       13.53294822512165
C           21.41192306806526       19.68821494165521       12.01428333924489
C           23.26959112599512       18.69697099744642       10.80450378359203
C           24.66542445685278       18.80414750024301       10.46969762579753
C           25.83744668136349       18.74382067172304       10.19777921936344
C           27.27299521024635       18.78256057652502        9.93490041379048
C           27.26588229659959       16.34153334044721       10.12573107847966
C           29.07146670002559       17.39563568952570        8.98870891151343
C           27.50908375592151       19.91347201563530        8.91780121928761
C           27.96688362093700       19.12640955088109       11.27159824904505
C           23.53631648638770       20.83029336031521       12.01690227853585
C           23.67836343421643       20.68028768667191       13.53390846410518
C           22.70357406073177       22.72554186930822       16.20678332556821
C           19.40507712340276       19.00395191774366       20.12793333490367
C           19.10715241933108       18.71725568448075       18.64353409669792
C           18.07613309014826       17.58453627496982       18.53211157207080
C           16.33561017165524       19.19156484704107       18.36065268368380
C           17.37250362455930       20.31195914452451       18.37751290347779
C           19.68232216436145       21.50882462587347       23.88120710242723
C           18.78859567270203       20.73861599190950       24.84884225200719
C           17.33669087754546       20.85262444340855       24.38846945670352
C           14.19839497101711       16.51513342382712       21.11058071690906
C           13.83188095581528       15.41942040649298       20.28547390510222
C           14.48659053324963       15.16926671023785       19.08391371454420
C           15.49042079354446       16.02807199609536       18.69106021928479
C           15.85711995434217       17.11948295161957       19.49008528398080
C           15.23439183401122       17.34738417092332       20.70026105189324
F           21.63148986032603       21.81933730962767       13.95864572350474
H            7.55660368029141       15.52174769331145       22.45402836216484
H            8.50897622014516       16.96070847327382       22.83766651626325
H            7.86860730658096       16.74755285481723       21.20556948421440
H           10.27499212681496       16.18130413738507       21.21784116986041
H            9.01454900930165       13.93837412692140       18.85455699116452
H            7.78747148476550       15.03650996160937       19.52553590786255
H            9.41672532295325       15.65568501640180       19.12562227166746
H            9.12384631739224       13.36292076322469       25.56630333676968
H           11.57447907438332       13.22384780472559       26.06337835663148
H           13.16035781747078       14.18605565923109       24.38681935509306
H           11.28829088289961       13.34866173246537       20.86353468594360
H           12.28308781541893       13.43341309735881       19.40194250517943
H           14.20913886303519       12.44008396742589       20.66254202437684
H           13.20019116516471       12.33410795665762       22.10961400624997
H           12.80026523969487       11.36908015761418       20.68642321947436
H           12.91619689280513       16.83541914196515       24.29446671238788
H           14.47194038125180       17.48288599924921       23.75752207910431
H           12.04199421856162       18.77938029024890       25.36924152246140
H           13.67612636559284       19.42489795373215       25.18823344283917
H           12.28663437151573       20.38032614664306       24.66879669860202
H           10.77568783543649       17.97513875995685       23.30803785999904
H           10.91706683488184       19.61918843924530       22.67689072035406
H           11.45878998695278       18.25003887444122       21.70404219993423
H           13.24953036300040       20.68367567879067       22.44596007498964
H           13.64757945491207       19.29844766661155       21.41360060195064
H           17.46851722074748       19.28317762408428       22.91294453582548
H           17.84444702536121       21.98668261566146       21.87240109083269
H           19.59750649680147       21.14950437267199       19.87706427136736
H           21.97860949929451       19.43974857050526       19.64418591200352
H           23.19811403245853       19.85554599645692       17.90095757933847
H           24.17432262303638       22.67044733886626       18.58459692130413
H           25.40642058231026       21.76604646976102       16.63449246714215
H           26.42942689523666       21.69479327470427       18.07188279766596
H           25.64585822582934       20.22910455778871       17.47069749820577
H           24.72149024852486       19.96765915010020       19.88477951718563
H           25.44528847120754       21.51072156747197       20.33728325473250
H           23.71859018966389       21.25240310496605       20.56941430644458
H           21.87221415249310       18.54573635867660       13.79960313570443
H           20.43151255828617       19.56067549009525       13.93727491770738
H           20.90490417089703       20.62266982783330       11.76081704251928
H           20.89171555623950       18.85077295426819       11.54666112742840
H           26.21281300191600       16.42560309858932       10.38920100654721
H           27.39454422335049       15.45113454520562        9.50933220428574
H           27.85346393131158       16.20428222873410       11.04694810518010
H           29.74698698470189       17.35983201390141        9.86012606487648
H           29.20352909369322       16.47017228085813        8.42392841489101
H           29.35360008434186       18.22907532383523        8.34820536407663
H           28.55811602338760       20.19330872788236        8.88902137799115
H           27.19153500148387       19.58637265819657        7.93285713296953
H           26.92821361920863       20.78697061568136        9.20181632080572
H           27.62957296119736       20.09838516051581       11.62052322232541
H           27.72377032508752       18.38445617127100       12.02941293956503
H           29.04482311832809       19.15856104184409       11.13485452088333
H           24.51736971834893       20.84347834439179       11.54295933312193
H           23.01038015257661       21.76323094543831       11.79566887993143
H           24.23905760189547       21.52301603456882       13.93536409685036
H           24.20704072334198       19.75696052954244       13.77343830089285
H           22.95376276696576       23.29936805676270       17.09309410563038
H           23.38425467402979       22.98997193247289       15.39599985567836
H           21.68444260991404       22.99489847683928       15.92242300507373
H           19.99426610025132       18.17985210271736       20.52909088374712
H           18.46184064367932       19.06558431935045       20.66528820737940
H           20.02677983777181       18.44355959931121       18.11373667802134
H           18.41940975068491       16.70796127173299       19.08215360654760
H           17.95988056716167       17.32042681013086       17.46627432156496
H           16.12301263239634       18.89674981969101       17.31686671949655
H           15.41368922128085       19.54958436777406       18.82074181147554
H           17.43438603638729       20.72551735965126       19.39128735424678
H           17.09819757397998       21.10800156804621       17.68261787548212
H           20.73924194856311       21.38175814232680       24.11110199472330
H           19.43286770651584       22.57517430546867       23.90536277227829
H           18.90335833705154       21.14766030643823       25.85115852686066
H           19.09058036219012       19.69061596841892       24.86320349179441
H           17.00871719043525       21.89443278778697       24.44075806106245
H           16.68192549643591       20.25222494690732       25.01801801694083
H           14.21803335697762       14.32639473566150       18.46583990244772
H           16.00536292396950       15.85759385374035       17.75677562722881
H           15.58577194495212       18.16444932433087       21.30485126005887
