151
 energy: -221.319894058471 gnorm: 0.009744229254 xtb: 6.7.1 (edcfbbe)
C            8.49209059772457       16.04900145238271       22.16080008852860
N            9.62537370286066       13.85928562703144       23.49584006109968
O            9.47283121410567       14.51455694465208       20.53014354542175
C            9.76110459690369       15.38664380524030       21.62462456242471
N           12.86922766790969       14.82837990879011       20.63302385447905
O           15.29159193735169       19.39691377178336       23.27018813394939
C            9.39233252386949       15.16336121121879       19.28069694495659
N           18.36415161756440       20.83050254731960       22.11877044197880
O           22.13029363028047       18.92436424565884        9.99843061770524
C           10.42819735286194       14.55502872444790       22.70449586107534
N           19.73633947784920       20.70164912155530       22.35849932891029
O           21.90478586498126       19.97281996027196       15.13960268703521
C           10.14613227424343       13.13446691102933       24.47053596740080
N           21.19564784931692       20.42789631823557       19.00941236784769
O           21.33181863834202       22.62272612123941       18.50192119871584
C           11.50502663733122       13.08910473368148       24.73896149616985
N           22.74484337159717       21.81427204277046       16.13550334600038
O           17.97996526946159       20.80737818743709       17.99601049291818
C           12.35288441462832       13.80358500915958       23.91148077772220
N           23.04494911098634       20.76128630218801       10.97450429908535
O           21.82467112000407       20.43067320515244       21.57543814108016
C           11.82299535813899       14.53806228836362       22.85268034871772
N           27.57101591820449       18.21280601095992       11.55338842215129
O           15.71570562089666       21.32528249463889       22.21530998911205
C           12.72401048007619       15.24799871918202       21.93848285052825
N           16.45003385225299       18.65912585536078       18.93971152428350
C           12.44191694354213       13.55024967818979       20.11962599821443
C           13.46974318173820       12.46382733728320       20.43496953332506
C           13.51862932759142       16.34431400716501       22.18624933027004
C           13.68987572512381       17.03040194993202       23.50591068768145
C           13.06042923122111       18.43549194630428       23.66437386171523
C           12.96992083266643       18.75661425345843       25.16036157507634
C           11.65846445207985       18.45659117297672       23.05120873156009
C           13.88751152332764       19.52928301425425       22.97266164357781
C           16.09585800610319       20.32312171410994       22.78250730533653
C           17.56514164720392       19.99327590136503       23.01181369766185
C           20.61968932162856       20.52139493666112       21.36136008790702
C           20.08134729567326       20.49959502594766       19.92607255918344
C           21.71729369933157       21.47018058476475       18.35559286898112
C           22.83069171579308       21.06218475659465       17.38252777382437
C           24.23146890501636       21.14457150949788       18.02467302894452
C           25.29992418738493       20.82781003099413       16.97797940163388
C           24.32800133619319       20.15294453289513       19.18314866936363
C           22.30990953681985       21.14135615742710       15.06436646591087
C           22.51153727234110       21.69669378868920       13.64042264050963
C           21.39875750078217       21.20142740875202       12.71197904736005
C           21.76555654533431       21.38143281539852       11.23627834898714
C           23.09979126069860       19.50215486697284       10.49215466160738
C           24.38433184638604       18.86064719769770       10.58082557295266
C           25.37712350533449       18.18594246807148       10.67775006372233
C           26.59819186780949       17.39667180061639       10.81643050624878
C           28.92884804338048       17.70802451639270       11.56712573032147
C           27.14579051185489       18.55599602344406       12.89761973911025
C           26.21869090975337       16.07141604165046       11.51307915778306
C           27.09619869370745       17.10098947420806        9.39321307571083
C           24.12399191496415       21.37487670665610       11.71237015593448
C           23.89266922408584       21.17453737986468       13.21060404962472
C           23.02405420384779       23.23632090143044       16.16780847100267
C           19.13704325702216       19.34249659493091       19.60279672363301
C           18.54098631868044       19.51800962466261       18.19278732955344
C           17.46800650110946       18.44957382812002       17.93958919440089
C           15.81161433602213       19.94870839593740       18.75489083507799
C           16.85747836093648       21.06021803134031       18.82957616737188
C           20.18837908445673       20.89541835963863       23.73090273254117
C           19.43265239030296       19.95083299119624       24.66000196692214
C           17.93152128708814       20.18196371858244       24.49522931940698
C           14.19592991175378       16.62202634918890       20.96228126469087
C           13.77995280777267       15.64471241980901       20.02331709044508
C           14.28165346820305       15.62734238007251       18.72690489430542
C           15.16641339766933       16.61626925778752       18.35179560983905
C           15.57292888030786       17.60171564889489       19.26286678980973
C           15.11934150202130       17.58149449414181       20.56774910779038
F           22.52335715911725       23.09009715240946       13.56905380193152
H            8.00959693410589       16.63383129861285       21.38277051129550
H            7.81141806833196       15.27748446576421       22.50675112000584
H            8.74219906859881       16.70465562803221       22.98896974078976
H           10.47290739738455       16.15380710756401       21.28383349220450
H            9.05738014586242       14.41325713983623       18.57049010890431
H            8.67897562836625       15.98792477262492       19.29556952810566
H           10.37203768314671       15.54621344339025       18.98019311495127
H            9.43346601846511       12.57878255340027       25.06418830185364
H           11.88745733712776       12.50707170915498       25.56145423625528
H           13.42230249817054       13.78920599816751       24.06484656474431
H           11.47390773498542       13.29626834817556       20.55690190109927
H           12.31499136172032       13.64144421129324       19.03888485808657
H           13.56851910585579       12.33871450003189       21.51072640563907
H           13.15650692393166       11.51945594788598       20.00086240910865
H           14.44026001663673       12.73685405105258       20.02655574859428
H           13.23753622825667       16.39178670190661       24.26554763305275
H           14.75684004865445       17.11349714958764       23.72081749512968
H           12.33022205067278       18.03471613410269       25.66313858822797
H           13.95688335578160       18.72649571754624       25.61761778678420
H           12.54744863082773       19.74736447789446       25.31079953114304
H           11.70474860454459       18.24029261867738       21.98633458434370
H           11.03784473477473       17.70331533214520       23.52873556233768
H           11.19182258022577       19.43005437770793       23.18490611244618
H           13.55864018128357       20.52198386606446       23.29661647659065
H           13.76699366791094       19.47411379346964       21.88667762200396
H           17.73316455782444       18.94632369046847       22.73414666721666
H           18.06627132747579       21.80236059436935       22.21603175545154
H           19.58051971030769       21.45712908721699       19.74207019922138
H           21.60754495426049       19.51393562197579       18.88811986507619
H           22.65338690534694       20.02132004426723       17.09227923666360
H           24.39290779999779       22.15262765398135       18.41744737608256
H           26.26716086922024       20.71569841983093       17.46081509275754
H           25.05925532221452       19.89842332751388       16.46450072574013
H           25.37736489237505       21.61982590285325       16.23875833269913
H           24.14513176653923       19.13984411653425       18.82819735166413
H           25.32521106419945       20.18610018161673       19.61162949913587
H           23.61747083668065       20.38590585688608       19.97285645306128
H           21.23146864512799       20.14586457144636       12.92889851321931
H           20.48275567065967       21.75048371766187       12.93735632958400
H           21.83395484844722       22.44375009773848       10.98872897522357
H           21.01419259595949       20.90489215684915       10.60525009687987
H           29.54909929211590       18.44344671880907       12.07736502026147
H           29.03277271228278       16.74925727897951       12.09738945742919
H           29.30082715246340       17.59750876613958       10.55303563466634
H           26.09015838248406       18.80725450909062       12.89607906266719
H           27.31564109485449       17.74698417136981       13.61973007799575
H           27.71076193928497       19.42666633946173       13.22477123698350
H           27.11148119005772       15.47661343455611       11.69091379091821
H           25.72066712100716       16.26045734471682       12.46098084569687
H           25.54195427359610       15.50677524661512       10.87777693099756
H           26.26065844751903       16.76067540863349        8.78620975470453
H           27.50418240688347       18.00374795152674        8.94770383620213
H           27.85274566495299       16.32206128576968        9.40549252906819
H           25.07425679217699       20.93088658673808       11.41574216476306
H           24.13036276346666       22.44250009095798       11.47752005405565
H           24.66946380227301       21.68185589842026       13.78172320565069
H           23.92178582381481       20.10817536337448       13.44305002601139
H           23.89381263595691       23.48679811675809       15.56209040003705
H           22.16493712022288       23.80087832617128       15.81066989073819
H           23.20075285190037       23.52493828984354       17.19857214916771
H           19.68533555827405       18.40096452864406       19.63583774230580
H           18.32450532250223       19.30440807133334       20.32328631039853
H           19.32631264268086       19.45478400155628       17.43174243424202
H           17.88914798536467       17.45220572921887       18.05065535025668
H           17.08995208910745       18.57188225870539       16.91029393551777
H           15.29530660665943       19.99274621653819       17.77909491747339
H           15.07893850089897       20.10761438743170       19.54489241497603
H           17.17658333557627       21.19319897755453       19.86853846023520
H           16.43615726193820       21.99617556568467       18.46411193584578
H           21.26125214627200       20.70794295366023       23.74369243362099
H           20.00260956687851       21.93740571785996       24.01651874190819
H           19.73614440491350       20.13536070058738       25.68943315905093
H           19.67984453337572       18.91941601144665       24.40426733664533
H           17.67649530911824       21.19869773090748       24.80595088795247
H           17.36204642903470       19.48051584061535       25.10272997233726
H           13.97916200160802       14.87201210784406       18.01670665914975
H           15.54859640504659       16.63366302425229       17.34192162829377
H           15.51012273024774       18.31219699683391       21.25109409034390
