151
 energy: -221.325305402605 gnorm: 0.009987641780 xtb: 6.7.1 (edcfbbe)
C            8.69942520500671       16.40667591418706       22.80188575743846
N            9.76803728945676       13.85412969523035       23.39099126862033
O            8.96155388913785       15.00345660618439       20.80247989943559
C            9.65114539367597       15.69442669172674       21.84155684314245
N           12.53308856025129       15.27122815355900       20.12902341259363
O           15.51130892776509       19.08812423733622       23.19959022203535
C            8.42664618990604       15.83120726889917       19.79308850361450
N           18.34639616055633       20.94510367418586       22.07079362010385
O           23.10328366049909       15.84908189975102       12.51075593583356
C           10.45879905929341       14.63862328213443       22.57526447580793
N           19.72924122322037       20.90816622136939       22.27867243746126
O           23.19702245653578       19.47762179270475       16.70843872882797
C           10.39053736311016       12.89871335384386       24.05567352141961
N           21.15392286056346       20.91706770856156       18.92636762818670
O           21.23815289051679       23.17629286835598       18.86805424246386
C           11.75642136391367       12.67446365299450       23.96076676752583
N           22.61632480454123       21.63198005261684       16.41030903388477
O           17.97240768763352       21.12368306596606       17.89424482062102
C           12.48503480228400       13.48853246166142       23.11489315750262
N           22.69585995337331       18.07772953229734       12.44558254377120
O           21.80906959025679       20.78124207927853       21.44937569123267
C           11.83905977648144       14.48999539935571       22.38918240221518
N           27.61096018458874       18.66251940563657       10.43603325601760
O           15.62362302644477       21.15328322652493       22.33578346551062
C           12.64689555561088       15.33397892802308       21.50123876114671
N           16.40456243980708       18.99361617133947       18.83138000530793
C           11.75640393511704       14.29966699849224       19.40075605612221
C           12.52858506512016       12.99362388654715       19.22039480814585
C           13.63908209704297       16.21719742573906       21.86202429476652
C           14.10542206006944       16.54412667041931       23.24460557390091
C           13.54148842762194       17.84556639130181       23.86110965699111
C           13.97449198100184       17.91860198065207       25.32744195839338
C           12.01735206128044       17.85966968602282       23.77164180490398
C           14.07720465545392       19.07636605088594       23.12105719174398
C           16.15453568329971       20.15109365729029       22.76018992112889
C           17.65755802471992       19.96734575643539       22.90537396738139
C           20.59599287176033       20.81246805441698       21.26135828657324
C           20.03186118063967       20.83017397743187       19.83306187357183
C           21.72703073781275       22.08554185617339       18.60665225298287
C           23.01573247183543       21.90887369506971       17.79168058790009
C           23.97909208850053       23.08953632918652       17.96958475317556
C           25.21337415789497       22.91757087313599       17.08815058935926
C           24.37688265890511       23.15653385640455       19.44569966094905
C           22.69355782060963       20.35869436678658       16.00538803904343
C           22.25732459695199       19.93958775524266       14.58976758511315
C           21.71891038241971       18.50475933159890       14.63305808445174
C           21.48184334423588       17.96855332571786       13.22213582335571
C           23.45434583746817       16.99021174667751       12.21609312410633
C           24.72085972859004       17.22131237925437       11.57391315207719
C           25.82495022085084       17.24427002673414       11.09289745380693
C           27.15645591852214       17.26609580687105       10.49685756062982
C           28.85976967110041       18.87282091077638        9.73308500850801
C           27.63920678226162       19.32940104067772       11.72292793859677
C           28.04904707154896       16.33168763738485       11.34206918150718
C           27.00636246438571       16.69053351260014        9.07843982524399
C           23.15283652994657       19.43686893869024       12.28433686134566
C           23.46990971331345       20.04869398388755       13.65338428377888
C           21.92597826012253       22.69378743004765       15.70546110391474
C           19.15943206454856       19.63357571762186       19.46343730857366
C           18.52189387180078       19.82878645122311       18.07337299682107
C           17.43363965611998       18.76973684905230       17.84042527374345
C           15.78884256316138       20.29525854053995       18.62940656064376
C           16.85923266556371       21.37756820082335       18.73933620070634
C           20.19319634213221       21.05398627616714       23.65291915683831
C           19.54697096866324       19.98978827476184       24.53363874343738
C           18.02885237439861       20.07976195523920       24.39664398561698
C           14.17385520067112       16.72848361502418       20.64423880146012
C           13.46913894017107       16.10354298836045       19.58320953766912
C           13.76851609820230       16.39275190719883       18.25607619615115
C           14.74694680706995       17.32790703745166       17.99227973817014
C           15.44321426940157       17.95933510602893       19.03257848009724
C           15.18102715185932       17.64137825627814       20.34849245716151
F           21.23280507724717       20.74079877420921       14.08275365036115
H            8.01966950047270       15.67649646791203       23.23005745981459
H            9.27061079484634       16.87606362278835       23.59671730654615
H            8.12942610185671       17.17310697859837       22.28217428400714
H           10.33793255951905       16.42516448096349       21.38154565531384
H            7.99828882610925       15.15719582124589       19.05303068460375
H            7.64482106659370       16.48972272237962       20.17843679158636
H            9.21555482505514       16.43627824351649       19.32971179130597
H            9.76201559364866       12.29328748923555       24.69275782541907
H           12.22692403861322       11.88530793525683       24.52293137749710
H           13.55009663413484       13.35083435186100       22.99277061853866
H           10.82728514050924       14.10670385919333       19.94169454346038
H           11.50560451009659       14.72424197423918       18.42524703324696
H           11.94478521216613       12.29768846553591       18.62512916249457
H           13.47604906917183       13.17907726588332       18.71883814018035
H           12.72908156231829       12.54000816956961       20.18863436899860
H           13.82985756271352       15.72291092114165       23.90905723064475
H           15.19413656726945       16.62359584034960       23.23073018367577
H           13.54938088356062       17.09003560407616       25.88712710817655
H           15.05747944052989       17.87050480390086       25.40369936136381
H           13.63516086966777       18.84848465190367       25.77687408263690
H           11.69678242840076       17.88094572421947       22.73377157809893
H           11.61470138128402       16.96521883610363       24.23859708897823
H           11.61041690546147       18.73190070446509       24.27698321485551
H           13.69499898442825       20.00173678572419       23.56013821410204
H           13.78979236587818       19.05189834946377       22.06673468098121
H           17.92495108519050       18.96710299823667       22.54660207151408
H           17.97459893721775       21.87643748599285       22.26955032993508
H           19.46394439604097       21.76061791109106       19.71678182225709
H           21.67220016878003       20.06721244242271       18.76315905222494
H           23.52660225957389       21.00502433375167       18.14109115561734
H           23.46760664379829       24.02339649721343       17.71895866141871
H           25.71554356000509       21.98282379855788       17.32910817333973
H           24.94552987750853       22.90424334747097       16.03469907331576
H           25.90650563843952       23.73511882489542       17.26056187673102
H           23.50102011211124       23.32902220655175       20.06885982425416
H           24.83826074284094       22.22319120801111       19.76246335887234
H           25.08032361170772       23.96762302293461       19.60808151392589
H           22.44739209518890       17.88547082253485       15.15696325124269
H           20.78538126835507       18.49303511331023       15.19908489651885
H           20.69583889236484       18.54608027653127       12.72750849905923
H           21.19416920166087       16.91678233706061       13.26289938519733
H           29.73096909890491       18.44907147416735       10.25638546928415
H           28.80529701142354       18.45466481507625        8.73255030963252
H           29.01370609558428       19.94834686235668        9.64365935745830
H           26.72540159202799       19.11227623348624       12.27167991082567
H           28.50050924672099       19.03884854794218       12.34163914868735
H           27.69775184539454       20.40243209061772       11.54932904683248
H           27.63006589407433       15.32954399127609       11.33176788654653
H           29.05321367081618       16.29638943283652       10.92844458363733
H           28.09727526107220       16.67196124023864       12.37370475463578
H           26.54927657507920       17.42826364930143        8.42540587908573
H           27.97224319721869       16.39577204371165        8.67944850975576
H           26.36743039397949       15.81169436781347        9.11311136624654
H           24.03775085951471       19.45346430146664       11.64809990841118
H           22.35314430192654       20.01176964319746       11.80900714407718
H           23.74560770541987       21.09604205256132       13.53306105022698
H           24.29805533664319       19.51568746748297       14.12370175043756
H           22.10208899324544       23.62621032029245       16.23224478064242
H           22.29103874802007       22.78711811320646       14.68517784977246
H           20.84844859706701       22.51641027811077       15.68706000786759
H           19.76510964742224       18.72743018532356       19.44547454667694
H           18.36230332673378       19.51675989113571       20.19398572817515
H           19.29098383281851       19.75678312926936       17.29448144626393
H           17.84335692236745       17.76807899640038       17.96916328399887
H           17.06105678347395       18.87899307186098       16.80825251291992
H           15.29339260199815       20.35498813798890       17.64423639509804
H           15.04236420147015       20.45934011944864       19.40905226438765
H           17.17895162830384       21.45780450186020       19.78381634924357
H           16.46494051988840       22.33903607381119       18.40855396588496
H           21.27899582900242       20.96297982789410       23.63655496260382
H           19.92206484781322       22.05537644570218       24.00624326319372
H           19.84597425354233       20.14548219966758       25.56894032251632
H           19.88779089131728       19.00244642180609       24.21835093108371
H           17.67408646336019       21.03724355300932       24.78548307914313
H           17.54224206460767       19.27696237725934       24.95010743312238
H           13.24404537742249       15.91106839930396       17.44477981188653
H           14.97119667090197       17.58881176972589       16.97026899198720
H           15.76148253244688       18.11816864506701       21.11631251314840
