151
 energy: -221.322479988649 gnorm: 0.007517830894 xtb: 6.7.1 (edcfbbe)
C            8.26614126990575       16.95872784565678       23.56329822531502
N            9.03233738834892       14.31673006525232       24.14501456226107
O            8.44113286847423       15.62000338370792       21.50687852876919
C            9.16193434877183       16.17174575472164       22.60676035490356
N           11.88822967413905       15.24022948316501       20.82530969700368
O           15.28377883593930       19.05892824398350       23.51060473420980
C            7.99097058182979       16.57279888956052       20.56834801892603
N           18.09699353609284       20.75962116996048       22.12217542718705
O           24.78500952705025       16.55964702692461       10.72201147987343
C            9.81297727182300       15.00386424973895       23.32383176435147
N           19.48678368442301       20.75469931498061       22.28675165326431
O           23.04499156895750       18.75348806130388       15.81286418170392
C            9.53156014808931       13.28605103337688       24.80314544348736
N           20.83557574714270       20.22970718532131       18.92497597881778
O           20.56922797548915       22.26076822855817       17.98048769862465
C           10.85559316519248       12.88811419941180       24.69980585979185
N           22.21495750100616       20.84786732660024       15.84083176299296
O           17.66797695876218       20.41279199483809       17.92945612989363
C           11.67806213315916       13.59870274388075       23.84500150071563
N           24.00737171835567       18.58918017073228       11.37134394972233
O           21.54750910425679       20.56602897671539       21.42472526353631
C           11.15949092662463       14.67264991324420       23.12251174858066
N           29.50953584147406       17.98922980669084        9.52672377635475
O           15.39975428417867       21.06679271574737       22.51633890028250
C           12.04072925904229       15.38484325825627       22.18769288566724
N           16.00214790020846       18.53688931306413       19.18660496101959
C           10.99495001670185       14.31770197819390       20.17013489450785
C           11.62600944311055       12.93326516861419       20.02623747961550
C           13.11507176437455       16.19792907541592       22.46760515111315
C           13.66208460872311       16.56707628712485       23.81039779120011
C           13.27364545464095       17.96252997524042       24.35435041448443
C           13.82186437654333       18.09738706977857       25.77773277776882
C           11.75362220516930       18.11821696242512       24.37215618022648
C           13.84660879156286       19.08855562111762       23.48559661223716
C           15.93001038832157       20.08364941884039       22.98642986300776
C           17.43560366595459       19.89968180153518       23.10050044652907
C           20.33073572963603       20.54300258981029       21.26405562580862
C           19.74003942014370       20.34669414705013       19.86436242923413
C           21.18689802785635       21.20689584919494       18.08049014635448
C           22.46084614957256       20.91804849379786       17.27841200400097
C           23.51776068100961       21.98585959427667       17.63695750895210
C           24.77867182687817       21.80730774531962       16.79603029407647
C           23.84841315298207       21.87328232422957       19.12360524912945
C           22.60187256060485       19.73341265787409       15.20795100602409
C           22.63630456320873       19.66362312276117       13.66720563288144
C           22.41881081792829       18.22232900578824       13.19713161992695
C           22.69059526021002       18.09058715542572       11.69860548742470
C           24.96433931550873       17.76396810461933       10.91374572062404
C           26.23703188881975       18.36664572065322       10.61124663089475
C           27.35823919299517       18.65927037535785       10.28155380876144
C           28.68464723168056       19.14247734647490        9.91363554508764
C           29.47213747340384       16.88018584543531       10.45697935239642
C           30.87840625579176       18.30995914796934        9.17878255929534
C           28.48956587253424       20.06779834777060        8.69834488261774
C           29.23680897028761       19.95718587747988       11.10332383697560
C           24.20884824911049       19.97544323299426       11.71226379658965
C           24.01148934524133       20.18057784339498       13.21694501821441
C           21.61576710836421       22.00784986120373       15.20939061373566
C           18.80891846208558       19.14400030090138       19.71070786185964
C           18.16158985835293       19.13837642831418       18.31274122717993
C           17.02834619095121       18.10554898157042       18.25783141349071
C           15.45380140365036       19.81843787853713       18.76937737030858
C           16.57805904643988       20.84922678215773       18.72609046313800
C           19.99031267598074       21.08451827316804       23.61530671726706
C           19.37796134080666       20.14509734495715       24.64832166418313
C           17.85586527387449       20.21403710861833       24.54997532229691
C           13.66137330260475       16.57635185029885       21.20579600740436
C           12.87550390761679       15.95004955740228       20.20477211839436
C           13.15967856705048       16.11884472977913       18.85389058428877
C           14.20022366936440       16.95304381881756       18.50481884540013
C           14.97460551808043       17.59120962283123       19.48311451021989
C           14.73179546014881       17.37782731080429       20.82365454222977
F           21.65196188334571       20.44339006912389       13.05896612609329
H            7.43386206237944       16.33046480694991       23.86684277450662
H            8.83617110869123       17.24130776159667       24.44347969113366
H            7.89053036136476       17.85985980743795       23.08568299668683
H            9.95068568539505       16.82913293186756       22.20472065809678
H            7.16782126511405       17.17406232019960       20.96436459915743
H            8.81097204674437       17.23671843418039       20.26536802887054
H            7.64196353353651       16.00512271727547       19.70774128883723
H            8.83327077669539       12.76404809673045       25.44329432269389
H           11.22620447251891       12.04707096784396       25.26250222125935
H           12.71513953648664       13.32750957496670       23.71402573982421
H           10.06905042884202       14.24981859368113       20.74504579851308
H           10.75623120996960       14.72262984558328       19.18428882950160
H           11.82686534996867       12.50513096712786       21.00577077459728
H           10.94781741708472       12.27413171415040       19.49260683476382
H           12.56142191770905       12.99883112600004       19.47553204005633
H           13.31927807754382       15.82950134519689       24.53849514342955
H           14.75149373027560       16.51957518693749       23.76012201412786
H           13.60973756702800       19.08744348449502       26.17377496298085
H           13.36014250511542       17.36030393663179       26.42940197495383
H           14.89771125310920       17.94442943074448       25.78551477808307
H           11.36116713798793       18.12063866152357       23.35990297440142
H           11.30259124335449       17.29142572778769       24.91460061574955
H           11.46721604086216       19.04865085115405       24.85533078340255
H           13.51200807919274       20.06836618743778       23.84937973673974
H           13.51861250230847       18.98474149866793       22.44712985511108
H           17.68755541219960       18.85986424026691       22.86853563677228
H           17.72639427645979       21.70868924618021       22.21441629122147
H           19.20812202253077       21.26697948335619       19.59593440850179
H           21.43403356361621       19.42211361248182       19.03108376101837
H           22.85149770607963       19.93473351715696       17.55792225614329
H           23.08742030367644       22.97442145299800       17.44777882226804
H           25.56365258380754       22.45972942046613       17.16681161198547
H           25.12589640531594       20.77689734332899       16.85271105101092
H           24.59462087487147       22.05101075817153       15.75361799179518
H           24.26104094693813       20.89371611369695       19.35209659860222
H           24.57618954027675       22.62830302292804       19.40116145639296
H           22.96379254283747       22.01359441992262       19.73701480107200
H           23.08336571387656       17.57408082444207       13.76851491549163
H           21.38800837643139       17.93314501541862       13.40821761954613
H           21.94935841974603       18.66867959461154       11.13486280849247
H           22.64054045893115       17.04343967888546       11.39511782801031
H           29.95886419258553       16.02576189286079        9.98780292835939
H           29.98943605323486       17.08902202670872       11.40673422250433
H           28.43945308290861       16.60935350085452       10.67135853977784
H           30.90461314753317       19.12049937937755        8.45740909893547
H           31.49548409759441       18.57872641912532       10.04997138938507
H           31.32069805333872       17.42874194507744        8.71383949333459
H           29.38677317814892       20.64800972219147        8.50485899977075
H           28.24984721345099       19.47131294128028        7.82253412369766
H           27.67039534052440       20.75559224349465        8.89031336787531
H           29.36098732608426       19.32211067172937       11.97788007142035
H           30.19552289083870       20.39682175869162       10.84112452090923
H           28.54240435163059       20.75515817569400       11.35159882914500
H           25.21712039285304       20.27586875312063       11.42260398796997
H           23.47879431988027       20.58153458450241       11.16361878889670
H           24.09832788491393       21.24080986663204       13.45233487374341
H           24.77071881385862       19.63001455974783       13.77404658568619
H           22.31382469537168       22.50053513696760       14.53392796858195
H           20.72131196010154       21.72797317537252       14.65734099120471
H           21.31584869146933       22.69920412715481       15.98976357948633
H           19.37530641547795       18.22150055415268       19.83601435934075
H           18.01838942147038       19.18584661637807       20.45527840831864
H           18.91480206792977       18.90968663453387       17.55022777051710
H           17.39342909205487       17.12472396203903       18.56395080502300
H           16.66005451729092       18.04574459514490       17.21973506836026
H           14.97283623757252       19.74739529763508       17.77730484500245
H           14.70717290790165       20.13635850937296       19.50055532907183
H           16.90686532813202       21.06166944586783       19.74958065773874
H           16.23531548072111       21.77394793747681       18.25965957778561
H           21.07566945467082       20.99686006972312       23.57962985721785
H           19.71966745128728       22.12181095031792       23.84188445552235
H           19.70812707993169       20.43960447903934       25.64329468859532
H           19.71370632257731       19.12510200135945       24.45917186691102
H           17.50958422557689       21.21655689216314       24.81489056945232
H           17.39103070844752       19.49752426358997       25.22603668845984
H           12.57897898878266       15.62388508456716       18.09000032073303
H           14.42023350363140       17.11851933944737       17.46035270305256
H           15.38061306536346       17.84758760627594       21.54175473170663
