151
 energy: -221.317154851714 gnorm: 0.004631086344 xtb: 6.7.1 (edcfbbe)
C            8.80377709047592       15.86579569823678       22.45549568453449
N            9.96365839942220       13.41349550326834       23.18742918679320
O            9.53369725303932       14.64437690008426       20.45500467541287
C            9.96689412373068       15.28277336022376       21.65334510317432
N           12.89120474210230       14.97219225801866       20.25190838614460
O           15.12122943739817       19.27459106729002       23.47109925620388
C            9.23011669832568       15.52814364766603       19.39929470238551
N           17.54140946973672       21.62695078842678       22.27937031586691
O           22.95581893410636       17.41960157694617       10.76635504411427
C           10.70889819234808       14.23781663197077       22.46772812972224
N           18.87418409303604       21.94284972684412       22.56435215440188
O           22.23356387968918       19.59563560513787       16.36898498019098
C           10.55225513264455       12.49311550891049       23.93156096744800
N           20.85485824839961       21.24059678109158       19.54313717451378
O           20.94300219031889       23.17073417631779       18.37848118214426
C           11.92807602094753       12.35322569955891       24.02087493179314
N           22.75707702294046       21.76509010039801       16.62481720663987
O           17.46451480248840       21.59195070156212       18.23134176608714
C           12.71520479332205       13.20370584737764       23.26455842609739
N           23.42845332281566       19.30338995087077       11.93094655336782
O           21.05023409095541       21.96331340829665       22.05161949610561
C           12.11040716857438       14.16077559274799       22.45391950790592
N           27.84958880601071       17.32908256477177        8.82661754350887
O           14.81570361744744       21.23455111823872       22.42621123586945
C           12.92651709378605       15.05696495152012       21.62861117105093
N           16.13771874331214       19.28258775405465       19.09592415093439
C           12.39180335982183       13.84216472631469       19.50819110868999
C           13.41697937050141       12.70895632418241       19.48016089413873
C           13.74993920959569       16.08466509673397       22.02754925054388
C           14.16121032235637       16.45120681317941       23.41846997803332
C           13.42579390178207       17.63547137472738       24.08583038561761
C           13.89995219421847       17.73519837432802       25.53833496902381
C           11.91551596384850       17.40957115279457       24.04776881879077
C           13.72251817393794       18.96005546940607       23.37014056910732
C           15.53457096305284       20.42159952364042       22.96502816190000
C           17.02399835916811       20.61842436510680       23.20445396181469
C           19.88887101850736       21.77777059435151       21.69609700492950
C           19.59438754462148       21.46554049101907       20.22342563563269
C           21.42701025594420       22.08602526634788       18.67899135216176
C           22.73851350086768       21.55907582681846       18.07737682319684
C           23.96592322133388       22.18249819308465       18.77083614742931
C           25.24897205552159       21.57436900238383       18.20715018162631
C           23.90947907003450       21.93954775251686       20.27780224230212
C           22.50616189011609       20.69162099084019       15.86578649096550
C           22.67143228360919       20.70463944795419       14.33096905036378
C           21.77733700153065       19.63522217854817       13.69713268237164
C           22.03233030719542       19.57250165974261       12.19357501841096
C           23.78040668770581       18.21658851040165       11.22583885413751
C           25.18045462678522       17.98984785362658       10.97869648247902
C           26.23406443305345       17.55110148794805       10.58961605110712
C           27.51617585353360       16.96254383678535       10.21417869408260
C           26.72107890511856       17.38777658343131        7.92162242191212
C           28.92284200740361       16.54245172069820        8.24994501336557
C           28.60057037235446       17.52689772737925       11.14710587283994
C           27.34676696759713       15.44438526199008       10.44314168095744
C           24.34049997259735       20.27884192887571       12.47750007968383
C           24.14217180098299       20.42385286277135       13.99217116430397
C           22.99331153887082       23.12668265076542       16.18428375617698
C           18.67839658174830       20.28022230699667       19.92103641580842
C           18.16123192031088       20.37809538354567       18.47546255543829
C           17.24234723431040       19.19203882395936       18.16686157033373
C           15.35857242561153       20.48200287819238       18.83865500745887
C           16.26088201866428       21.70887194691615       18.97703751141289
C           19.13023632604397       22.40839700688994       23.92267513490910
C           18.69156520633276       21.34088822325928       24.92086679131473
C           17.22038589441292       21.00890227988090       24.68354566387088
C           14.24278330946304       16.67845450905267       20.82845202865126
C           13.70168822259333       15.94621074842793       19.74223033432817
C           14.01197157485022       16.27424394080366       18.42661358498181
C           14.82165422107120       17.36652770168765       18.20089816047492
C           15.34167762033088       18.11380790772180       19.26649643745243
C           15.08413411299058       17.75519556335988       20.57241447989391
F           22.30312475443841       21.91928878280462       13.74331046233209
H            8.29772804553903       16.63960305565765       21.88507021461106
H            8.10364367940203       15.07201354995924       22.69299203503186
H            9.18087599414786       16.29857352607039       23.37685439257604
H           10.67218792301709       16.08556000309641       21.38259855459332
H           10.08909466122359       16.16904147583448       19.16973822953548
H            9.00206498256555       14.90079002666429       18.54126981385214
H            8.36604395697495       16.15546555218183       19.62863767609023
H            9.88060650531352       11.84964098198424       24.48361155561106
H           12.36760437183277       11.60060616044064       24.65437479378149
H           13.79264302546731       13.12576083190257       23.28357206917463
H           11.45974888308555       13.49818198064723       19.96217665437209
H           12.17395117620447       14.17513933324540       18.49145811820304
H           13.06425358896626       11.90530127309265       18.84148606575620
H           14.36818479003973       13.07266075894600       19.09734237370807
H           13.57278721633315       12.31597927288640       20.48218736492451
H           14.01700955527362       15.58014028992464       24.06056246123092
H           15.22631285129253       16.69004904374797       23.40002388594944
H           14.97761086569308       17.87083648519849       25.57356436922366
H           13.42767937897728       18.57825359571557       26.03653683849577
H           13.64573652537673       16.82855005584275       26.08007647029270
H           11.55727114476582       17.41739207099683       23.02227900764006
H           11.67138772807888       16.44693752417461       24.48986953343566
H           11.39549374296858       18.18754777148610       24.60108867752455
H           13.15342026733208       19.77717833082870       23.82506965439492
H           13.45148491212877       18.90436211712548       22.31189663944444
H           17.54413460418852       19.67569028393041       23.00561251238636
H           16.95688249065588       22.46265858192588       22.33727963806998
H           19.15910401296076       22.37548390211008       19.78793549373523
H           21.34721591311159       20.39849982235491       19.80337901598578
H           22.77263289374574       20.47407574293927       18.21814342305862
H           23.95453040593291       23.26183868624747       18.60020740983079
H           25.28121344539700       20.50932250009629       18.42621864917997
H           25.31671775230210       21.69756112066782       17.13004458416678
H           26.11376422815998       22.04701622972409       18.66374114198811
H           23.00393698324153       22.34640655387139       20.72160547661082
H           23.94973876208238       20.87531857118454       20.49722980796765
H           24.76152668879246       22.41745902845989       20.75325488667793
H           21.99591887098119       18.67805088452074       14.16864956891998
H           20.73211334365858       19.88165391571789       13.88639216665528
H           21.75868126604331       20.52792928107621       11.73263534428023
H           21.44566274372725       18.77275101888929       11.73815914992129
H           27.08062422024948       17.72924523547120        6.95183601290077
H           26.21619185476709       16.41888606579770        7.78003643098028
H           25.98859025840773       18.10330615921857        8.29179301079314
H           29.76080976454853       16.48838042330075        8.93893345326793
H           28.61406284986942       15.52280163210855        7.97664296225190
H           29.25917854759418       17.04741813690262        7.34461257034898
H           28.78681117738229       18.56601861379177       10.89336145856921
H           28.27076599462819       17.46252201372472       12.17993137949690
H           29.52542728472167       16.96745814004997       11.04438174898593
H           28.29004263324695       14.92653851259996       10.29336407227091
H           27.00602817070395       15.26308219411148       11.45923641629655
H           26.60230638108174       15.04108735431998        9.75930813426234
H           25.36446377400796       19.97247704454944       12.25964700356367
H           24.14367093015945       21.24595002315165       12.00080665448502
H           24.76649234184976       21.23919753747951       14.35717912754469
H           24.42425569518598       19.50229710058164       14.50138217172181
H           22.64191643992395       23.29086867167016       15.17477394186453
H           22.43424655410169       23.79050682420177       16.84274647922262
H           24.05531510598773       23.36859084432795       16.23715996863191
H           19.22808363181670       19.34723903974674       20.03404417359055
H           17.82310826720568       20.27204598642643       20.58815026817084
H           19.00161670357233       20.40534139263429       17.77250536890442
H           17.76847585215410       18.25014967749349       18.32323801130953
H           16.92495109269608       19.25608194221082       17.11110878471636
H           14.90847534648305       20.45909461559618       17.82974355324194
H           14.55954439027956       20.54864734477749       19.57998568321291
H           16.48514507742756       21.87196593574412       20.03662093519593
H           15.76328349987411       22.59336302218165       18.57620124418314
H           20.19486598411180       22.62524304290677       24.00447387452214
H           18.55986999823591       23.33088694600221       24.07764023672519
H           18.83891014660777       21.70660589740617       25.93591573534229
H           19.30238696054351       20.44810361054825       24.78069952743396
H           16.60172624131186       21.88129074920999       24.90842830950436
H           16.90077410590375       20.18465531927945       25.31983082405596
H           13.62410266018063       15.70466735990417       17.59557885840886
H           15.06065061508708       17.65468929317089       17.18737386350328
H           15.54460434692325       18.32258813396716       21.36191316257191
