151
 energy: -221.322856530417 gnorm: 0.007744471216 xtb: 6.7.1 (edcfbbe)
C            8.26416835350717       17.57307006056902       22.21804989221738
N            8.71900906762987       15.15446936044056       23.53488883066522
O            8.75189455235316       15.84055386034439       20.55936794447310
C            9.27956782660242       16.57771495375851       21.66323767730019
N           12.11722170619842       15.17916052402712       20.62162884719658
O           15.34517945044435       19.13989683320110       23.30978116770795
C            8.76870814877546       16.53777388955945       19.33465713901739
N           18.45466812558343       20.44204345230659       22.12919486649199
O           27.25283694599318       16.02973116154286       12.96901296734286
C            9.68111469093703       15.56768795463267       22.72310269478321
N           19.81930001137500       20.28350019255944       22.38604691712732
O           24.68661396751466       19.35796175504632       17.07969037180451
C            9.00261314514635       14.28251700802096       24.48622354931561
N           21.21221159526974       20.08585112026233       19.03258392983322
O           20.87222107785291       22.26881276545826       18.57723489713333
C           10.27548710983772       13.77493940833913       24.69504764983694
N           22.64921288971854       20.15695597772590       16.55077261813117
O           18.24815981515416       19.99354204943068       17.84466676633104
C           11.28638491504689       14.19791123624617       23.85233870864321
N           25.24238125316499       17.06878580162325       13.11238572818326
O           21.89105416075923       19.89724158370144       21.60060265828940
C           10.99961096361436       15.10554633622196       22.83338704563945
N           27.00584788722644       20.70954112730952        9.81705722407559
O           15.83370291848230       21.05464472033195       22.25732439336202
C           12.07519575552022       15.56052369391848       21.94410105936074
N           16.46618277475311       18.18585523958053       19.04010995835564
C           11.31582728915629       14.13602042869554       20.03072233965667
C           11.84369951478460       12.74831963071352       20.39254188480400
C           13.13104844031569       16.39148441407336       22.24372374228675
C           13.50407889472456       16.90866291534963       23.59847288958481
C           13.12158512396040       18.36689506825856       23.93771860435070
C           13.39952018631296       18.60430407647120       25.42544057468398
C           11.64322203402051       18.61650204669773       23.64430146455367
C           13.93883158180284       19.36627530147841       23.11303781284157
C           16.17641582592316       20.02830851253256       22.80247318939508
C           17.62754645436216       19.62324872541459       23.00897989381100
C           20.68875585928085       20.03969593383039       21.39444649645825
C           20.11883144542075       19.99611425456746       19.97499820541701
C           21.53574885252783       21.24958266486424       18.45161036454093
C           22.79311889333502       21.18940109225753       17.57056681572287
C           23.10538884689561       22.58190471224886       16.97729057021675
C           23.91705838057452       22.49872733253317       15.68664468179565
C           23.86407750407820       23.40045541428698       18.02182364148679
C           23.68048229286626       19.32170527941271       16.36990156434406
C           23.68454458856368       18.34187167030854       15.18030120460358
C           24.61043684168241       17.15861868605875       15.47348886423951
C           24.79434699948714       16.27827646541717       14.23580752370349
C           26.47687113205078       16.91300666229138       12.59962236924284
C           26.85338857869569       17.84295122912543       11.56689088680096
C           27.40915420434493       18.50430603754076       10.72449263252339
C           27.86250410852290       19.51392717223842        9.76613976959510
C           26.94537159332562       21.33060404052086       11.12812486691342
C           25.66983563850798       20.50260684513192        9.28611729316003
C           29.31118315629810       19.90253456793572       10.11073409155598
C           27.85516180638561       18.90398183981586        8.35525716548186
C           24.33882336398948       18.13442902196075       12.75694858059579
C           24.16785307655115       19.09579638034320       13.93531548360223
C           21.41164720604524       20.15692479329795       15.79420882553857
C           19.26282656824373       18.75031252304345       19.72391718739534
C           18.69105021913492       18.72329869579307       18.29433430423956
C           17.54083057163180       17.70693062746068       18.19708878277402
C           15.96676081156814       19.45425780807255       18.53251083358690
C           17.10614962085725       20.46994814853527       18.53811881068638
C           20.25547551465225       20.47795671590005       23.76043417332659
C           19.48928946918974       19.52603284593262       24.67446654994841
C           17.99162768739869       19.76696144253015       24.50059238322387
C           13.86130580681434       16.54968335929917       21.02758855184320
C           13.21040325447458       15.76062066634259       20.04519916572255
C           13.68853262227732       15.69406664311221       18.74035650089073
C           14.77828082205907       16.46560632440232       18.40153955981998
C           15.41089120937633       17.27900462593978       19.35314223318082
C           14.98067775874471       17.29228570560184       20.66381753769884
F           22.40791843513599       17.82459751745708       14.93824295435028
H            7.38199313481169       17.03038693331862       22.54198286922648
H            8.69235466364911       18.09875559481818       23.06543277802299
H            7.98485342896682       18.29744979413120       21.45912103079879
H           10.18418558262195       17.10611766276546       21.32324874419836
H            8.14044725142573       17.42773402159105       19.36446869372760
H            9.78880915963822       16.82967157804851       19.07225282963846
H            8.38139486046470       15.84783537551863       18.58920922725099
H            8.16559625377809       13.99166805966967       25.10747122329524
H           10.46819699685352       13.07314723746739       25.48961692929476
H           12.29666765780547       13.83202358563947       23.96346225039771
H           10.28251601988889       14.24027318246914       20.37335651053055
H           11.33276865837500       14.27342849337481       18.94743758727630
H           12.89556896462636       12.65984114924213       20.12955645034192
H           11.73449346100256       12.56805608548650       21.46023439415628
H           11.27966061196119       11.99263072819365       19.85584349577192
H           13.02310229878006       16.27299032538134       24.34417046504385
H           14.58577399287089       16.81203674011108       23.71391240797238
H           12.78174921120122       17.94830162323017       26.03295395659023
H           14.44432839860280       18.40792677124838       25.65196730625077
H           13.17435534856712       19.63345685495470       25.69467065453730
H           11.03346808192347       17.88049855070372       24.16147826045198
H           11.34492966614787       19.60975658115781       23.97051517545538
H           11.45168523436657       18.53383835370739       22.57762734653915
H           13.70715270151619       20.39477007741690       23.40841411881799
H           13.72418934260762       19.26140285730349       22.04470669990538
H           17.74873887203572       18.57498706320989       22.71376201178749
H           18.17521989264877       21.42003664281071       22.22229724541496
H           19.51498263931995       20.89721499062797       19.82251346461575
H           21.88739721669749       19.33688147740654       19.04575853914585
H           23.63417761390814       20.87827396013631       18.20244583257251
H           22.15233072555066       23.08309372056235       16.77495885086719
H           24.80421669049501       21.88721754066614       15.83392448073739
H           23.32775619946423       22.08058075286511       14.87543170067157
H           24.23272948077896       23.49674461374423       15.39649455169958
H           23.29450309915220       23.45564551784032       18.94735409130682
H           24.82934003850382       22.94171412773503       18.23034014112580
H           24.02931877577261       24.41013068428882       17.65858852193875
H           25.56853782361544       17.55686870584469       15.80698932168814
H           24.18795421281189       16.56486955089481       16.28486683232918
H           23.84394759592477       15.80261069339048       13.97502253955530
H           25.54451871323057       15.51049956483788       14.42901987100049
H           26.48091569644168       20.68584470028884       11.88986704440767
H           27.94393826237471       21.59812472113279       11.46158751964972
H           26.36190314619179       22.24542535155263       11.04504383655716
H           25.71974955795228       20.33333176813268        8.21372239370575
H           25.14469692774252       19.65907231843320        9.75895029908788
H           25.09068687640988       21.40733073082162        9.45628002188102
H           29.57672064316616       20.79534433969684        9.55186994188741
H           29.43501816090927       20.09060258686833       11.17332880487114
H           29.98337829214714       19.09482515329279        9.83615364528370
H           28.61238642108450       18.12772602127090        8.29677277758828
H           26.89643518522310       18.45363416561451        8.11773194145232
H           28.08342384072176       19.68035432036932        7.63107154801752
H           24.73208739981932       18.66928116561194       11.89102217729174
H           23.36735736955393       17.69806532957778       12.50156286507477
H           23.46163780485239       19.87856171555604       13.66202841281676
H           25.12389400276201       19.55817302411941       14.18489327585156
H           20.82229282322495       21.01679876203796       16.09707901837110
H           21.59281836054302       20.21066758376856       14.72283417501055
H           20.83051312971200       19.25899731122058       16.00102198703597
H           19.86091855954196       17.85236746201030       19.87740762034548
H           18.43121920296472       18.75310774829912       20.42507195736535
H           19.47985580074190       18.45314180040811       17.58507334885849
H           17.86559811761356       16.72897304995626       18.55329117566756
H           17.24600070452047       17.62587182915701       17.13655223105768
H           15.56583499883677       19.34562870746236       17.50855620629729
H           15.16881261177188       19.81063094046818       19.18621506721400
H           17.35372343731884       20.71572297047838       19.57747770097797
H           16.81564816266676       21.38000539314555       18.01284870237433
H           21.32880049028334       20.29953734541519       23.78979296580604
H           20.05311048174880       21.51557560837817       24.04325549505455
H           19.78354164966281       19.69839787716607       25.70852664261915
H           19.73481944536835       18.49770434962009       24.40887920039516
H           17.73622998591512       20.77247055787481       24.84114891251321
H           17.41425078413091       19.04807836376775       25.07942495426389
H           13.21165476827484       15.06981649109437       17.99970832950885
H           15.14456920611520       16.45196202467784       17.38545265760781
H           15.52085192455965       17.89239165618810       21.37375741942557
