151
 energy: -221.317157872863 gnorm: 0.009066312261 xtb: 6.7.1 (edcfbbe)
C            8.23874233390940       17.05530553334827       24.55731693127330
N            9.45675846060520       14.61735215227696       25.31632574607508
O            8.09558581937627       15.34729971977448       22.79188204734946
C            8.97659071103422       16.18063368029760       23.54478932009629
N           11.41014111337125       15.51892441816675       21.33970476056157
O           15.06634126454509       19.48863994761725       23.20159120117763
C            7.31945942779465       16.02735731518801       21.82956760676641
N           17.80675934847610       20.73204558669947       21.25474944032132
O           26.36589647872376       16.37355087875550       10.59670619072995
C            9.93567210097634       15.23918567198877       24.24753671560736
N           19.18793001039938       20.50513582682069       21.29824303598697
O           22.87368907800935       17.50269161745952       15.28655439062621
C           10.23069790775633       13.77844178196238       25.97987173822433
N           20.27335970225921       19.31510346670589       18.02749982395546
O           20.91999232583312       21.40945211287308       17.51427868152861
C           11.54324414987193       13.51144955463579       25.62185394524793
N           22.45348261523472       19.70944267233383       15.43484833047133
O           16.89569631308708       20.31139133834489       17.31633337320725
C           12.05052115284728       14.15425016675791       24.50850657286284
N           25.06540305215937       18.15039361821992       11.14451888854773
O           21.00819905474823       19.47549380626583       20.50704381192794
C           11.24308729801757       15.03517171474349       23.78814818774365
N           29.53535255574277       20.90566105501115        9.85044878110628
O           15.13120767103488       21.30210277008387       21.87569354934221
C           11.82907697067007       15.72696132811019       22.63455321818554
N           15.16043493294139       18.65843140540773       18.76119289860148
C           10.49074620091435       14.49725780998662       20.90562955130432
C           11.22795947011568       13.23150874334755       20.47343428432142
C           12.88608987990803       16.60887996363542       22.66198966241622
C           13.62769533532648       17.08772881891869       23.86764082284331
C           13.22538990081462       18.48653694132945       24.39189512930529
C           13.92921314302174       18.72022705636899       25.73161138110268
C           11.71267966697086       18.57134070288211       24.58476354359768
C           13.65140471826989       19.57971662403183       23.40276339264951
C           15.67013630777273       20.36372141914039       22.41978463375416
C           17.15573380421275       20.04595189716143       22.36976022338892
C           19.85809837952156       19.86675290763459       20.32503668513248
C           19.21770600802132       19.73258994315092       18.93436600942699
C           21.13260923575437       20.20169098207045       17.50172524232452
C           22.40576773679279       19.59890580190528       16.89408278131300
C           23.64898998236362       20.27624588177397       17.52058058604257
C           24.92773112124059       19.61926030415733       17.00582923716668
C           23.59886230193707       20.17645426105258       19.04177909443323
C           22.79542438548243       18.60711271823967       14.75011175589963
C           23.16952907601172       18.71315401873440       13.25062443719935
C           23.33436644040293       17.31099462261951       12.65661706995042
C           23.84741884585137       17.37505849394115       11.21725702779405
C           26.24615154776004       17.56983126295497       10.86765084853510
C           27.39807875713867       18.43892239568054       10.85746744491830
C           28.46162796289846       18.99065541958085       10.73518495976037
C           29.75139001394773       19.67212378995949       10.61774893603611
C           30.73218358502415       21.57059804015908        9.38008785859572
C           28.65371777062980       21.85294609570806       10.50379927240375
C           30.31515233333602       19.89282587774103       12.03768606546868
C           30.66985511010462       18.70618208919386        9.85143607107011
C           24.91026553388084       19.50633167006448       11.60530486814796
C           24.46674121245686       19.51073179509519       13.07173731263954
C           22.30465731017409       21.04247970923748       14.88574214068134
C           18.03640650957809       18.76864384225237       18.87044378174089
C           17.21907502879839       18.95439075427107       17.57743583348323
C           15.92780961549635       18.12568560258466       17.65654542003599
C           14.75448458951529       20.02360253057116       18.48020950370921
C           16.00738791498631       20.87411015312041       18.27093211119747
C           19.86753210459761       20.88564840515526       22.53077977216956
C           19.25455563949070       20.14969955907938       23.71690426072916
C           17.75380569583323       20.42368714727777       23.73989878225487
C           13.15352979701245       16.94960169401902       21.30419778659203
C           12.21606446163448       16.24561208263458       20.50663809546976
C           12.23188454685165       16.34787975180898       19.11986702870668
C           13.18938040761557       17.14876219596431       18.53295754705680
C           14.13760345384111       17.83300276351314       19.30736616667879
C           14.12416660761759       17.72823043936134       20.68277423254046
F           22.13926581413624       19.35032077853802       12.54005683599346
H            7.65391348966848       16.42001555364045       25.21536217690647
H            8.95967804656894       17.61392364442598       25.14566449927599
H            7.58366017556197       17.75869861127073       24.05112597151695
H            9.54109679855562       16.81697515361919       22.84386222914279
H            6.57241378976545       16.68152721287943       22.29392596232553
H            7.95728256273286       16.62271008469131       21.16205148819390
H            6.81204554073895       15.25030239807870       21.26030578436048
H            9.77314643360462       13.30452952481023       26.83778051392222
H           12.14452618228830       12.82320488169909       26.19367486135245
H           13.06398598445864       13.97752799313238       24.18060116743046
H            9.80950600973430       14.26866326921969       21.72678597462356
H            9.90304901857008       14.88967611595474       20.07125551745823
H           10.51209858966226       12.47850445244147       20.15909041609185
H           11.89818521876706       13.44851432863388       19.64545894752584
H           11.81427139587892       12.83615520050907       21.29836851860344
H           13.46826220783935       16.37876477992531       24.68177045729820
H           14.69379177958364       17.11018730104297       23.63683785607594
H           15.00048703631416       18.58255543334337       25.62571138577427
H           13.74349105347455       19.72845158477834       26.08819220748952
H           13.56359982629178       18.02009950300508       26.47556809765263
H           11.19818320926291       18.47201434175484       23.63338546772600
H           11.37979362997581       17.77127385681063       25.24147670483037
H           11.43648067421177       19.52320624414292       25.03001991664607
H           13.40981721055883       20.57443570689821       23.78853128445213
H           13.15000725466587       19.45460658166677       22.43864902657461
H           17.27594123695312       18.96835450392444       22.21313712793255
H           17.60735102079214       21.73267181278240       21.31178450585178
H           18.89900173585506       20.72947001978665       18.61223347559566
H           20.55854393423540       18.34573285372745       18.10052362899317
H           22.43997713387022       18.52818743587878       17.11674599442734
H           23.63662623233749       21.33529140728605       17.24462764770706
H           25.03343962408600       19.73907794835645       15.93099130142436
H           25.79192148518683       20.06701552984163       17.48806539868434
H           24.91845327713014       18.55409579702802       17.22964770304445
H           24.50293495903765       20.59973406517819       19.46922691788568
H           22.74582086665540       20.71985408278097       19.44015968468178
H           23.51105573750741       19.14069716772816       19.36367774006614
H           24.03233732607971       16.75745014740269       13.28423837254095
H           22.37428681857074       16.79569082988461       12.68507511848074
H           23.09611882233716       17.84717694522105       10.57803078069782
H           24.06194225477404       16.37234926897818       10.84778929126668
H           30.42234520264514       22.40360957042670        8.75255385405180
H           31.35677340692861       21.97296384649260       10.19041305825525
H           31.32693476855634       20.89628645627257        8.77335586476022
H           29.15346662189602       22.43390135877776       11.29255245524502
H           28.28083979485831       22.54765397608437        9.75221573661348
H           27.80712725176208       21.32403594620701       10.93482481398036
H           31.26213613868061       20.42383306540448       11.98046456255734
H           29.62230571587243       20.46495270979560       12.64849275766412
H           30.48302811117133       18.93130716234089       12.51365887152633
H           30.37719872217653       18.66528468101812        8.80542839026317
H           31.70844390679329       19.01339513232849        9.93173818932058
H           30.57053359347157       17.70948085125139       10.27464822773707
H           25.85793258941919       20.03491045299603       11.49892556839197
H           24.14972090979214       20.00044200985706       10.99274327052187
H           24.33269313891634       20.53951344278220       13.39451595416310
H           25.23333928402003       19.03491313119676       13.68542722581365
H           23.25084454572858       21.58584245486468       14.90737395750192
H           21.91972958615969       21.00907232520222       13.87327280008513
H           21.59279414374006       21.58681265644605       15.50326679953481
H           18.39218530111160       17.73997019754897       18.91284430498172
H           17.37422231567663       18.94774784353561       19.71456936842609
H           17.81388412029630       18.65508423339718       16.70868238301564
H           16.15624413622808       17.07742026151787       17.85082376249571
H           15.39848795055638       18.20892933929241       16.69183856035492
H           14.11026577963470       20.07486823084659       17.58393499065645
H           14.20295667065113       20.41588667072429       19.33591784606849
H           16.51476382518758       21.00096233302647       19.23293009896959
H           15.74157945455357       21.85270873160536       17.86978157399201
H           20.92190668985977       20.64243887833029       22.40890403354344
H           19.75472186208791       21.96809288250994       22.65431707236740
H           19.71761745701844       20.49435782510105       24.64050696033373
H           19.43882788600515       19.07980216506637       23.61267713655614
H           17.56946340620268       21.48356702421724       23.93077534388546
H           17.26555433693899       19.84093083611602       24.51886444024114
H           11.51596646339475       15.82104683061943       18.50780505274196
H           13.21685684271840       17.24474262575578       17.45767702307743
H           14.88826637064727       18.23853438941222       21.24209889228842
