151
 energy: -221.321595338502 gnorm: 0.008527515799 xtb: 6.7.1 (edcfbbe)
C            8.39218446519374       16.63395111550399       24.56688117442246
N            9.41859885322736       14.01936363987795       24.67868008546762
O            8.21069178105274       15.51878535414610       22.39389071649601
C            9.12227802531173       16.02404868065661       23.37089303459515
N           11.57077403257840       15.44634230326752       20.96464726198790
O           15.36700571830616       19.02608877330040       23.36898298316170
C            7.64688797630365       16.50235768775022       21.55869678350926
N           18.12593721573533       20.56673229338359       21.69644037211311
O           24.83970736173052       16.83676189269471       10.28944069749269
C            9.97329345966910       14.84641078203143       23.80392808247348
N           19.51937891380233       20.46472317129276       21.73856227736077
O           22.85936122854315       18.59586684034253       15.30576817421180
C           10.08806030944879       12.95362523274943       25.08197684009336
N           20.58118141354493       19.94805138462538       18.28137235116697
O           20.89492070212854       22.15728462863269       17.95476051330560
C           11.37232065258563       12.65869502629443       24.65172897929590
N           22.29627823567315       20.76136721141871       15.55650152981662
O           17.25495091597309       20.50391582473728       17.63659239672659
C           11.96319371408362       13.52263772867641       23.74766325278334
N           24.09941327900937       18.87652643907793       10.94751984601256
O           21.46774035312605       20.06498566453108       20.72044874139255
C           11.25971487357017       14.63741862123481       23.29021712222000
N           29.82410277806577       18.28480349487746       11.00523826445690
O           15.48011915567864       20.98667229442142       22.28877336950328
C           11.92247903614260       15.49414181026910       22.29598988515152
N           15.57690123092171       18.67387488970234       18.93577158059184
C           10.56320740393557       14.59313765780080       20.38443427270549
C           11.15323184292364       13.25822829727202       19.93477828218640
C           13.03094772987539       16.29043931702119       22.46950501579072
C           13.72135047078738       16.61515710557540       23.75494420247771
C           13.39644862425090       18.00223498200021       24.35956495017045
C           14.03444371147433       18.08907332816228       25.74836615068261
C           11.88510079567136       18.19300587879068       24.47724405474905
C           13.94179028891118       19.13984046864265       23.48940452365633
C           16.00683794184228       19.99372052302878       22.74124306309021
C           17.50204267709617       19.72706107506382       22.71416840169588
C           20.25091098237446       20.18088757619422       20.65108826661514
C           19.54745564911548       20.10457910009007       19.28704872406029
C           21.25466993764335       20.99717605616689       17.79353330376674
C           22.51532981117643       20.63813063742797       16.99678798745911
C           23.69412633550797       21.51018866629112       17.47628505886534
C           24.93828144681324       21.26345597338519       16.62698289422261
C           23.99208638890142       21.18042619196101       18.93691608533225
C           22.56434209503277       19.68443554362741       14.80678110087396
C           22.65532736968935       19.79012119399497       13.26981020755041
C           22.39214970784125       18.42302456306887       12.63259748864848
C           22.73858893022780       18.43127350944356       11.14307528727693
C           25.06440510678695       18.01050506658312       10.58655863957772
C           26.40269998518620       18.54349743860537       10.52962098317893
C           27.57800867083694       18.79555434078108       10.45202225161339
C           28.95989897675059       19.25605122419767       10.32171579234180
C           29.50934878653447       18.11065145691740       12.40874807715408
C           31.24707454840077       18.47995426090936       10.82167425754819
C           29.26606738701997       19.27450525047928        8.81489118464641
C           29.04259769663864       20.69187619478426       10.88327629230790
C           24.33722270210396       20.21517244314814       11.42602856060259
C           24.06589150575996       20.29199007164331       12.93165010256779
C           21.87292396227302       22.05937148386388       15.06578383592468
C           18.49773175537205       19.00369835357364       19.15165663430184
C           17.67776302826431       19.16735098274876       17.85728888191396
C           16.46158828167059       18.22593929417555       17.87957806228814
C           15.09098774865411       20.01160099441264       18.64865239581842
C           16.29078246473571       20.95209881710279       18.57662023160726
C           20.16088010416942       20.72542798357313       23.02158004081199
C           19.58042657976370       19.80410075630421       24.08948746706190
C           18.06482825451467       19.97938579056624       24.12638958458113
C           13.40474488490952       16.73846466381625       21.16820741475458
C           12.47264450306784       16.18726076100146       20.25482745706615
C           12.57464838153697       16.42840281366416       18.88808476557621
C           13.59912277312814       17.23566622804067       18.44338760088291
C           14.53552015360489       17.78071321484986       19.33487200110807
C           14.45517848020502       17.51444252769596       20.68425805880277
F           21.72240916062950       20.68202085756067       12.73195633029232
H            7.77193822418900       15.87033729384010       25.02628876406151
H            9.11432896933627       16.99356065648016       25.29344576759316
H            7.76952429420167       17.46646619304861       24.25276700519459
H            9.76800481019153       16.77557714875658       22.89126269893728
H            8.41907168370558       16.96662689814216       20.93598134694064
H            6.92974445328696       15.98343364800267       20.92683823758821
H            7.13234609164318       17.27869716482214       22.12809903710858
H            9.56562610126382       12.31727793071561       25.78300998699849
H           11.88763239492313       11.78059765348939       25.00685287057035
H           12.96115325495330       13.33872802854639       23.37653869577080
H            9.77529261951491       14.42690100027336       21.12135983683401
H           10.12896603589473       15.11453727155101       19.52781548870680
H           11.91754119427557       13.41742902972392       19.17731777229051
H           11.60372312114056       12.74139118171180       20.77887721245613
H           10.37044610975178       12.63000855224510       19.52069506885881
H           13.44285959894884       15.86339419623411       24.49654967758201
H           14.79959302398728       16.56112175462283       23.59956071846763
H           13.86908659656221       19.07364648337946       26.17992224678076
H           13.59628295602450       17.34700027873016       26.41077497562337
H           15.10481309681083       17.91351133514762       25.68555839104013
H           11.44844765130517       17.35363087400463       25.01156834352467
H           11.65523745292962       19.10836192297739       25.01587530925114
H           11.43030682849478       18.25117749269811       23.49192414330232
H           13.71026035133472       20.11232908473271       23.93681624129576
H           13.50567373380034       19.11627844137718       22.48613302729487
H           17.67685699275215       18.68001550613373       22.44061920966041
H           17.82770548067315       21.53439443756725       21.82452777158715
H           19.08443260803538       21.08204403656792       19.10664154713198
H           21.00011936860437       19.03157840335559       18.21639208993891
H           22.76653345517177       19.58793013593148       17.17042536970418
H           23.39796901597072       22.56112779420353       17.40582510665715
H           24.80306621826750       21.61443177177865       15.60806302452707
H           25.78652862658685       21.78631476724529       17.05933745964365
H           25.16506764553830       20.19909705575506       16.59747004239798
H           24.32009061793206       20.14780636046015       19.03069747893735
H           24.77614033382332       21.82877816742699       19.31527323029860
H           23.10939032477730       21.30737484456190       19.55877630608772
H           22.99399313885651       17.68333608898923       13.16001517888861
H           21.34021071813937       18.16754687684632       12.76430662318131
H           22.06791538958409       19.11189651504425       10.61012960424567
H           22.64485939210764       17.42636249345366       10.72907240737821
H           29.84257997838610       18.95129287296110       13.03535370384405
H           28.43595825100623       17.98212719796160       12.52914227272331
H           30.00501845250347       17.20768141658545       12.76217271024582
H           31.62612668225690       19.40257611939608       11.28644872022830
H           31.75877848156039       17.63712955275831       11.28502759491523
H           31.49442461259318       18.48385861850959        9.76472544216661
H           28.44192123612873       19.74314687518736        8.28298769603122
H           30.17149992023724       19.84042208492014        8.61437848081143
H           29.38088087657077       18.25747927046097        8.45064446128972
H           28.44144896537099       21.35835451200991       10.27042114280015
H           28.67290995235307       20.72963301835043       11.90544113955170
H           30.07352572481348       21.03754782108142       10.86420106753708
H           25.36933478840959       20.49757915544722       11.21912570972970
H           23.65970324006793       20.89550167069795       10.90047407331713
H           24.17773308575269       21.32360277413484       13.26337198105827
H           24.77639569357604       19.66381496877785       13.47056605776629
H           22.68032827799367       22.57284280344222       14.54472878051819
H           21.02043637849544       21.96366311767558       14.39865542302337
H           21.56449238780079       22.65610936593490       15.91931496926684
H           18.98229314869296       18.02831322579217       19.13400865937729
H           17.81247908492977       19.04778955942346       19.99508871749037
H           18.30462835290041       18.94775595292486       16.98701395803745
H           16.78019181718024       17.20509534470447       18.09292300799680
H           15.98232770069674       18.25116480661575       16.88456415950415
H           14.52966507526845       20.04812960053142       17.69682873372873
H           14.43307749643509       20.33299345071621       19.45876176777674
H           16.73395053969055       21.03558096276475       19.57495654534053
H           15.98800011444871       21.94009825649316       18.22774423229470
H           21.22988327603381       20.56376573205649       22.88582081680610
H           19.98587789892177       21.77343353996398       23.28824902305990
H           20.01603907621460       20.04960619220087       25.05663743365390
H           19.82858896817888       18.76980814367306       23.84842855250312
H           17.81552446751792       20.99757710148589       24.43536516783958
H           17.60842238889541       19.28229903492848       24.82734028029536
H           11.87316146136121       16.00029061401104       18.18809961000173
H           13.68754318170315       17.44899941297520       17.38806756421041
H           15.21467228472710       17.90430138037997       21.33890048691214
