151
 energy: -221.313043628962 gnorm: 0.005050118331 xtb: 6.7.1 (edcfbbe)
C            8.27404826705408       15.98236539677289       23.24176699897785
N            9.62156775602020       13.58686062182947       23.65069052258849
O            8.76944208331208       14.99771458666327       21.04894503101838
C            9.33768245980625       15.53364881132137       22.24211305755021
N           11.99517195241394       15.29954200210701       20.26042795779946
O           15.25965959346746       19.18019613955247       23.35628937057768
C            8.24611649323426       15.96208097039274       20.16336121883792
N           17.96758047482907       21.37519851745313       22.37599422776598
O           24.52019802699263       15.92128756890912       11.74423440947813
C           10.21279224679533       14.44479383057281       22.83329336554259
N           19.35479062988760       21.37860740514074       22.59570482622030
O           23.41408152203974       19.02276201378542       16.96909020435274
C           10.33694478797262       12.62757548186424       24.21063178515942
N           21.26156650618166       20.89186379044831       19.50066980958958
O           20.93915639068296       22.70007314557656       18.19434295497155
C           11.69928000410380       12.47690152443000       24.00320741433869
N           22.86905160765177       21.16069271790617       16.53098683951985
O           17.41122165085645       21.24898456615434       19.41329471498601
C           12.32430187995080       13.36259751737367       23.14454408529038
N           23.90357170514081       18.00276889182449       12.38543782050973
O           21.52977018378736       21.24280422695486       22.06980884967971
C           11.57852284088661       14.36466572147282       22.52630660563190
N           28.66215891168184       17.17687118254491        9.10690611066907
O           15.20101229674470       21.15393567475379       22.30408113122706
C           12.24984329523268       15.29806158760934       21.61578353079627
N           15.65733803410957       19.14982253030414       18.65940793362909
C           11.32249934230869       14.24920382707787       19.53612843393098
C           12.30829794778639       13.15816988154632       19.12034631992438
C           13.20092876334503       16.24282799145912       21.92955629262804
C           13.80332361905982       16.53904079708968       23.26710053932722
C           13.31187180738847       17.81918842717960       23.98465371786032
C           13.81426196041940       17.78197983499445       25.43061646706165
C           11.78368215624242       17.87502637696752       23.96875169037304
C           13.82217082887717       19.10332188210771       23.31403768933421
C           15.82173665686455       20.27577694834207       22.85634121688333
C           17.32208537042528       20.28223751820659       23.10255868885484
C           20.34787505879192       21.19618235694881       21.71741339717365
C           20.01692259299708       20.98201815158784       20.23281392764181
C           21.64361501586116       21.76751976766507       18.56439225305325
C           23.01994985061335       21.47319896587282       17.95417558734220
C           23.98751844709499       22.63948984182854       18.21988021754197
C           25.36115771281252       22.33790524422017       17.62702713568427
C           24.10000127799242       22.85564071568680       19.72839532531752
C           23.08238879023891       19.89257553961325       16.15996161537807
C           22.95364492842619       19.47236056842720       14.67744097515090
C           22.84139080540633       17.94942961468308       14.58591590350566
C           22.76215838529922       17.51548262894681       13.12578293362902
C           24.68572278991699       17.14347848719835       11.71112310445422
C           25.74184852708861       17.69753583526712       10.90557741576836
C           26.63429424723525       17.90421223197928       10.12194930942964
C           27.67034443253154       18.26083793109534        9.15739311543716
C           29.09117221655086       16.68177702783731       10.39753528531985
C           29.80742931300020       17.43898854059428        8.25973396842996
C           26.95564338689392       18.35532215781586        7.79595794400640
C           28.24494238450051       19.63800621971695        9.54655684127530
C           24.05842310155947       19.43682006560963       12.40521893739553
C           24.14447173235461       19.95880356243999       13.84679329070661
C           22.51114321998973       22.27264243344158       15.67158968038522
C           19.17695899607287       19.71892717535390       19.97959953693578
C           17.96469654381609       19.98458096410713       19.07710028919459
C           16.93536395964613       18.87790815351705       19.29908376171763
C           15.16833260972707       20.49369345057653       18.95437655340298
C           16.25554884591613       21.51241352217918       18.64350419170948
C           19.65356435981682       21.67108870321699       23.99126573381339
C           19.05650028289018       20.58178633471849       24.87447292528744
C           17.55661440108426       20.49836759275735       24.60812345498011
C           13.56846798825386       16.84587779360982       20.69384693683768
C           12.80060553423189       16.23551472603517       19.67434867550496
C           12.94387111503982       16.62344838998835       18.34561214830661
C           13.87393647857840       17.59625738885572       18.04387750335859
C           14.67620973005051       18.16773342964350       19.03875419162304
C           14.51646541415744       17.80225263796090       20.35825979154950
F           21.76907782899437       19.99340457490444       14.13176499155677
H            8.75163031212497       16.29771248200560       24.16364011835821
H            7.70011664581437       16.81346532339013       22.84102627166720
H            7.61123107947682       15.14914555848124       23.45228426016144
H            9.97890619144979       16.38772700191946       21.96792576727548
H            8.00608658585413       15.42641593816528       19.24730631407197
H            7.33877916783168       16.42769010124548       20.55798650853444
H            8.98858119783559       16.74059303414915       19.95211182183905
H            9.78859259948275       11.96025999468292       24.86137973425249
H           12.24848049209691       11.69076758507028       24.49521043402923
H           13.38200203026201       13.28254860924338       22.93871362557338
H           10.53707155881619       13.83144741084651       20.16797482432942
H           10.85497384772172       14.68902596182821       18.65277194174196
H           12.77288628883671       12.71651057201171       19.99874046486213
H           11.78925651752518       12.37905546324849       18.57117870171967
H           13.08956347817581       13.57551389209158       18.48906441917462
H           13.59272795322888       15.69785088726024       23.93036678751050
H           14.88721536269027       16.61473708297099       23.14986590259084
H           13.38464323638068       16.93340127083799       25.95600237295914
H           14.89713377654997       17.69333652693253       25.45155472858682
H           13.53069135167177       18.69101162295142       25.95495136770403
H           11.42365023282182       18.69671903174141       24.58210541234712
H           11.41949587900453       18.01731567733574       22.95454012901885
H           11.37397715482635       16.94548266328391       24.35496016474355
H           13.42579703791005       19.98173700463984       23.83386029445838
H           13.49088002602610       19.15680849041630       22.27245975267769
H           17.71456065326177       19.28664937195319       22.82835491247690
H           17.72796857901593       21.39952680163251       21.38727169640408
H           19.48967792711641       21.86695150818888       19.85819021076663
H           21.93936099571533       20.24390975302946       19.88121852325250
H           23.42901306031675       20.56955390119209       18.41545081857442
H           23.57642714848141       23.54779072905209       17.77150407256331
H           25.31066821534955       22.20522691912461       16.54990442380384
H           26.04397093723264       23.15400549911915       17.84283605390790
H           25.76249354680803       21.42484278838528       18.06129755184740
H           23.12955294485116       23.07859385220976       20.16687735324575
H           24.49258149656642       21.96644943141139       20.21642528624930
H           24.76696863716266       23.68683398672892       19.93555900246832
H           23.70695045691118       17.50700361776682       15.07703362879379
H           21.94611841815851       17.62405915690838       15.11614818656928
H           21.84832339568851       17.91726231543790       12.67311304213037
H           22.75198639889262       16.42705607368459       13.04913446367331
H           28.22383148773813       16.39454222148389       10.98889302440187
H           29.70405103212836       15.79633477431344       10.23474373525086
H           29.68720081927738       17.41017305324476       10.96916793421559
H           30.53133163309979       18.13214219437406        8.71412300863025
H           30.31452269548766       16.49074381378485        8.08124380635457
H           29.48772162767098       17.83564065490884        7.30132858521148
H           26.06775624294237       18.97507436852284        7.88833012021958
H           27.60602374065479       18.79474820960902        7.04602840655204
H           26.65974956783700       17.36089030905739        7.47429784521702
H           28.73444719577007       19.58774944431755       10.51638342966688
H           28.96345123217727       19.96758980635891        8.80107769665458
H           27.44063273469351       20.36629632314384        9.60046344183205
H           24.96148039377359       19.70538177202366       11.85593823773838
H           23.18980305271630       19.89169581182093       11.91522040400012
H           24.16845091101134       21.04716082572723       13.82395753143658
H           25.05145771761607       19.59283393966779       14.32799404783947
H           23.40085598782253       22.83105035390748       15.37936484666072
H           21.98203627594252       21.94292919209317       14.78749263592515
H           21.84776880613942       22.92875388909549       16.23243013716194
H           19.80256490707595       18.96188555645604       19.50799053751723
H           18.83450911267494       19.30879228127542       20.92930188056328
H           18.27009427008645       20.01689002745582       18.02018196566074
H           16.83245394987795       18.76858182621638       20.39032392868962
H           17.31290161629467       17.93556320269686       18.89514640814475
H           14.29034446641411       20.67699421523402       18.33141789123775
H           14.87706897886817       20.60759296778710       20.01290706359266
H           15.93690248104484       22.51715784234723       18.91888423995567
H           16.51228631043686       21.47668815671739       17.57712139112638
H           20.73598747713338       21.73056708638863       24.09289002931926
H           19.20251865984510       22.63619423519559       24.23028610673430
H           19.24058927990634       20.81921900795198       25.92028559364771
H           19.53188577918731       19.62653427975627       24.64636487450580
H           17.07995711091804       21.43428308781453       24.89974404395083
H           17.10463023955938       19.67945273146019       25.16557384190260
H           12.35126726193717       16.17606429679378       17.56284154426237
H           14.01290156519721       17.92233504145528       17.02581070392880
H           15.13168520408338       18.22867167243278       21.13224805073910
