151
 energy: -221.325406609081 gnorm: 0.006417520608 xtb: 6.7.1 (edcfbbe)
C            9.62680223309422       15.22882190734583       22.01965885483177
N           11.08745274566641       12.82634891525029       21.90853743530822
O            9.93464809443101       14.42602122502494       19.71576641662016
C           10.59487745110064       14.93906688524714       20.87278338522085
N           13.36101756977282       15.51022321995158       19.03684495268936
O           16.05551427774561       18.57709153566909       23.04875604471942
C            9.12208103822847       15.35725366991140       19.03832798977277
N           18.49142731726231       21.13568495937959       22.53791310409716
O           21.15740894358676       16.97352162022138       13.48021551634461
C           11.59567392200155       13.87192440999259       21.27163578013726
N           19.85370806279391       21.30548468675240       22.79934662243407
O           23.59377372578570       21.23972853697619       17.34978627551729
C           11.88057078703949       11.83577588183105       22.27301115283818
N           21.27377623385513       22.17462875462033       19.55135119454505
O           20.81402873063397       24.38831047408665       19.57442287596882
C           13.24344463640692       11.82540535895568       22.01880618018292
N           22.30749354801574       23.04964561676501       16.98104635485986
O           18.30820480131840       22.14446605471904       18.29765810694478
C           13.78495762653491       12.91500505529718       21.36363935280070
N           22.23604362982761       18.96607589940199       13.53266422993438
O           21.93987180754293       21.63738557417138       22.03718979398003
C           12.96094877442828       13.97227589931271       20.97306437605272
N           25.11927606491139       14.24616716141852       11.78744493055617
O           15.77807880691314       20.77951350533838       22.73745520978644
C           13.59286576181914       15.13630825493245       20.34147960018155
N           16.80355912275792       19.83049313444856       18.77368588144524
C           12.60364468978587       14.77365659004920       18.05524666034228
C           13.50272305115279       13.86717005377925       17.21577916621579
C           14.52794767666130       15.96794137337054       20.91893906286353
C           15.03510567013807       15.91712525448093       22.32450307549793
C           14.34076252551050       16.88470790671932       23.31048745408107
C           14.85198589156768       16.59998643982664       24.72513318695572
C           12.82560646508741       16.69043354770067       23.27094264603603
C           14.64317946817074       18.34334288190687       22.95125966317211
C           16.48761629881298       19.81476817076231       22.91953159571178
C           17.99723735461986       19.87841778782975       23.08618392895436
C           20.73610815705477       21.53962262069586       21.81674043162257
C           20.18118105875447       21.76817814690449       20.40663507686210
C           21.51511452039887       23.44884576286083       19.22627657339675
C           22.71398592255712       23.59510068364909       18.27694789331391
C           23.22919615980876       25.03919186829550       18.19856976379614
C           24.24265865713454       25.20017216172635       17.06936455326206
C           23.86544790742480       25.39929779591229       19.54081140181684
C           22.84547057650776       21.88148333561452       16.60877904790038
C           22.53345681673999       21.27824116096810       15.22837402328811
C           21.30389363520718       20.36714533739154       15.30832803555900
C           21.06071884811512       19.68831787529382       13.96129981852453
C           22.18268570843203       17.64015266033440       13.31665009784721
C           23.39109604257649       17.02808294023141       12.83163462456048
C           24.30151095800851       16.38384085374272       12.37602076128132
C           25.44938242036624       15.67697929806127       11.81559641284459
C           26.20863698302615       13.36198910670549       11.42850040833047
C           23.92992598849533       13.93293281761067       11.02043156737167
C           25.74860048708745       16.29246578924193       10.43077441890502
C           26.63503440601163       15.93644928502232       12.75946905094665
C           23.42056886336401       19.77974772177749       13.40549810424283
C           23.73988047699278       20.47412345563638       14.73143399753241
C           21.20696877427328       23.72503968670860       16.31802525818582
C           19.47079703037149       20.55724360718335       19.79646088521915
C           18.93929107137220       20.87686762579038       18.38712134982700
C           17.97158413778496       19.78017209374593       17.91821130922237
C           16.12401172041709       21.10654738829326       18.62951825667693
C           17.09550023175969       22.21394152911099       19.03142379559805
C           20.27874591594104       21.20207513803293       24.18877498130864
C           19.84365009368753       19.85704877325857       24.76319931423935
C           18.33646487292496       19.69912819456150       24.57895675188717
C           14.90899021670680       16.89942141090813       19.91011863008757
C           14.16002970585761       16.58085892477093       18.74944575807019
C           14.29072115714078       17.32163846909789       17.57929203579470
C           15.16586899449960       18.38594251471331       17.57789082890362
C           15.92552382715217       18.70416012569921       18.71312440048067
C           15.81539485929495       17.95647600695688       19.86563393733568
F           22.29048279095519       22.28351916147822       14.28853577666656
H           10.18754260467263       15.50985297972579       22.90477350420498
H            8.95460812530514       16.04102967238720       21.75994310837287
H            9.05381413796729       14.33137044274905       22.22972220350283
H           11.13089388782298       15.86113963000914       20.59113399579961
H            8.78380184046969       14.85347833850710       18.13442493614961
H            8.25356886869104       15.65171209588240       19.63377095234984
H            9.69749007036795       16.25218217229211       18.76982959192287
H           11.39354346532445       11.02202674871256       22.79313298725386
H           13.85902461090905       10.99518414410258       22.32481720285217
H           14.84057331208817       12.95878956842743       21.13826364881571
H           11.84643384811018       14.17701168778108       18.56590546606267
H           12.09902364404321       15.49357523807951       17.40598089017005
H           12.90465996053682       13.34410374251707       16.47577195162755
H           14.26343308682406       14.45266992570541       16.70455790127195
H           13.99827980764409       13.13230918755514       17.84751802307166
H           14.89872978739540       14.90593968202779       22.71117982789760
H           16.10359085463131       16.14323858889886       22.32289436004465
H           14.58234757085483       15.59154395600630       25.02618104022409
H           15.93261147890595       16.70022291076161       24.76699619908654
H           14.41081006925130       17.29822137652145       25.43100480422854
H           12.34297283390840       17.29737637427420       24.03252261137057
H           12.42799405406027       16.97364995171560       22.30010454401483
H           12.58336635573811       15.64635684757613       23.45180315360341
H           14.12937721485284       19.02868950783809       23.63270254992896
H           14.32388769122475       18.57298679892321       21.93112580076772
H           18.45094609518545       19.05871091386448       22.51836147481630
H           17.94454119790738       21.91108570354324       22.91244166096368
H           19.49895726666795       22.62449646217134       20.45342726369779
H           21.96740100719112       21.47393986125150       19.32903359027919
H           23.52394774875871       22.95325678856831       18.63830536689538
H           22.38174727110749       25.71187147990500       18.03509069323188
H           23.78491497501511       25.03069293202202       16.09908100766039
H           24.65240382943678       26.20673931810356       17.08514477703133
H           25.05874956731108       24.49153602189660       17.19521010164857
H           23.15183598631820       25.25585268432206       20.34837160859529
H           24.73409116299667       24.77220667031633       19.73186029580118
H           24.17930691756992       26.43947968898405       19.53898665472844
H           21.49038398723072       19.61947779026458       16.07943595447695
H           20.41996376278838       20.94371846652348       15.57604013455256
H           20.81869275300378       20.44826705523788       13.20990969366983
H           20.23721805587082       18.97524506634275       14.03620317209272
H           25.84677856223859       12.33953835766856       11.52043654582041
H           26.56743558511472       13.50276513895428       10.39783535326352
H           27.03829145947184       13.48927418308865       12.11759275507248
H           24.09327561982301       13.96376826016678        9.93214625847770
H           23.60638970577194       12.92753663578322       11.28736579023393
H           23.13273853249395       14.62838415783713       11.27934202272175
H           26.00998173368678       17.34052529725671       10.54318271558318
H           26.58272292114722       15.77189858836164        9.96817332127270
H           24.87895479021484       16.22117607586104        9.78227255244153
H           26.48999788626111       15.39317298414044       13.68776766635409
H           27.56720299521954       15.62910552736320       12.29824968227952
H           26.69610614064835       16.99791119609934       12.98190918320959
H           24.25668481040619       19.14907880068730       13.10374433847145
H           23.24582516112530       20.53920824392236       12.63562442241372
H           24.58750909362317       21.14680567449848       14.59678207385094
H           23.99792363482685       19.74751779197402       15.50062121071498
H           21.49049147175108       24.09342048211676       15.33267477338542
H           20.34484805239954       23.06286417938634       16.22272474001196
H           20.90519014137983       24.56629873374722       16.93677398044864
H           20.17099297797886       19.72504602565866       19.71828037491926
H           18.63351279137717       20.26895751329882       20.42703467204588
H           19.78296469007908       20.95207277464412       17.69355077209583
H           18.43683732742589       18.79923051545207       18.00522054659491
H           17.72268515575583       19.95979153984674       16.85605588269432
H           15.76909830377661       21.27920340058958       17.59537967945107
H           15.26475322053213       21.12050401293132       19.30522204855616
H           17.29050354813863       22.13906472037225       20.10708421205592
H           16.68073734469346       23.19740690603546       18.80561092958060
H           21.36187825974676       21.31796758092853       24.20223309862513
H           19.82019276754364       22.02134179581071       24.75341885463623
H           20.10454859615390       19.81140013906446       25.81912494629920
H           20.36688097639502       19.05495511547942       24.24114397954094
H           17.80735513009869       20.45654543781543       25.16296709657907
H           18.00628574728480       18.71454688561073       24.90732212071126
H           13.71923174314853       17.08224844652235       16.69480820286495
H           15.26915105591965       18.98609817046934       16.68399948461099
H           16.43481650119674       18.20965070685067       20.70911561709768
