151
 energy: -221.325568846328 gnorm: 0.009581840865 xtb: 6.7.1 (edcfbbe)
C            8.33690833086068       16.47184365050595       22.91209574490083
N            9.55257625927737       14.13768973479200       23.87733539220439
O            8.81266934703855       14.90632126881276       21.07914964865405
C            9.39160207042958       15.73829108178416       22.08481277235337
N           12.30131098272711       15.31594593077710       20.46414611593678
O           15.22125708955587       19.35286705146155       23.29860030650111
C            8.28013927657001       15.60264881215000       19.97293798972442
N           18.17668720405621       21.04360476303262       22.27019841121162
O           24.49865798172519       16.06768517906767       11.40672913873897
C           10.22163334661663       14.81564463148331       22.95522754567521
N           19.53684003266642       20.97352896593918       22.58489770920203
O           23.55060565675328       18.77890879983160       16.57430607896753
C           10.19801091054584       13.29726665693271       24.66526476470940
N           21.12281775532484       20.37286780073855       19.36015452256259
O           21.08197892806961       22.49799200095321       18.60899768798483
C           11.56470023960620       13.07815243073595       24.57867159013974
N           22.49038771056538       20.76327946647577       16.44334625151704
O           18.27070315134344       20.50852222393513       17.91483356816698
C           12.27269104729788       13.78564545836807       23.62508822763907
N           23.54091590980348       18.03587307851193       12.01144942616498
O           21.63775227188572       20.51640858609320       21.93765631856008
C           11.60624751122025       14.67848645114843       22.78377405689817
N           28.88121786896142       18.34593910253427        9.90027326225037
O           15.43019856381402       21.38321595087166       22.36849445513443
C           12.40542026950829       15.45655518704990       21.83056982544915
N           16.30199889774966       18.81717294409617       18.94103296316062
C           11.58703740605832       14.27751419705631       19.76457702673853
C           12.49660176541721       13.08551284080995       19.47080327271815
C           13.38686197205300       16.37203583468581       22.14217508314867
C           13.77143114149073       16.84627452437118       23.50645666262949
C           13.16956469141537       18.21194170448855       23.91865790350757
C           13.44265576284728       18.43807250336438       25.40764427192313
C           11.66195953762481       18.23166053143749       23.66915771878150
C           13.79702094539626       19.35563472137059       23.11279833108566
C           15.90908353673555       20.39424510403355       22.87691290877827
C           17.38806574774033       20.21238795827109       23.17323341293707
C           20.44963819556295       20.63814832519205       21.66022527460381
C           19.96375273431509       20.50149235041151       20.21478133168230
C           21.60278362211994       21.39022664247666       18.63986715914563
C           22.85784686581874       21.04550534059401       17.83031165557702
C           23.89709730230746       22.17315845365752       17.96432948279133
C           25.12141737555642       21.88624433861073       17.10213986554657
C           24.29261209581379       22.28964396004023       19.43526498514346
C           22.88854402953248       19.59355052269636       15.92868037236494
C           22.61288323541641       19.26244359415999       14.44805212119138
C           22.59118008972323       17.74508774726638       14.24342017251036
C           22.47619285653105       17.40492842043778       12.75680362486009
C           24.49774189542021       17.30222195382079       11.41528101971649
C           25.54157291511063       18.04333718342615       10.75968870635050
C           26.48811719914101       18.51951172653506       10.18497013132115
C           27.67218911349275       19.12082090995452        9.57177484508932
C           28.86274014110975       16.98862779530180        9.38201061190348
C           29.18595181519136       18.32653189044889       11.32114493971445
C           27.46668627488282       19.17806064269591        8.04992382756806
C           27.81331530682269       20.56473747398502       10.08518981766322
C           23.56000623388102       19.47414329000905       12.12012190020364
C           23.71383265195372       19.89264142198638       13.58626216610000
C           21.64881511400849       21.73499907054930       15.77400839912330
C           19.00734109640760       19.33547107214001       19.96378951019807
C           18.62043395822133       19.25187814898955       18.47518777036531
C           17.46884638673284       18.25119951415880       18.29968705192789
C           15.90738141591402       20.02980544266472       18.25286465560358
C           17.04716307195319       21.03462860918425       18.40690747007732
C           19.92360872451797       21.27864692529068       23.95563998944027
C           19.13747896917739       20.40791531625673       24.93214994772013
C           17.64358526898310       20.55589971086030       24.65220173586438
C           13.93912226803695       16.80389142579807       20.90191992709557
C           13.23080487707054       16.12775857662483       19.87768198203893
C           13.51269799412908       16.35323498810071       18.53362616906171
C           14.50736373421776       17.25294204615277       18.22101145930538
C           15.24735680624484       17.89652461323926       19.22502603181726
C           14.98107416383310       17.66320400000097       20.55718756996019
F           21.37053682347788       19.75096344761707       14.03259698507058
H            7.69071892366034       15.74191567843007       23.38942080253447
H            8.82415395300219       17.07213845552007       23.67444012681750
H            7.74405907540786       17.12558354298895       22.27858116757217
H           10.05580334937419       16.46831877269712       21.59375144781976
H            9.02138399938733       16.29554845330695       19.55729147022647
H            8.03062182903400       14.84322798243443       19.23601599391153
H            7.37641137853628       16.15876327601246       20.23773259028558
H            9.58717955101505       12.78789337573878       25.39730672563126
H           12.05691442611398       12.38063134353018       25.23656076720578
H           13.33948929219132       13.65174835126466       23.51634637150334
H           10.73786512709561       13.96083847011432       20.37148262065721
H           11.20696004793798       14.69496307346660       18.82907460820175
H           12.88537782280066       12.67138619264710       20.39828512083033
H           11.93689023118265       12.31400241387912       18.95068566477827
H           13.33611879259625       13.39207150220262       18.85018950388607
H           13.43962906367205       16.10914693306556       24.23857726886958
H           14.85788889776756       16.92606137479674       23.56379998822449
H           13.08360142596781       19.41739248018130       25.71366826202483
H           12.93135222388623       17.68519764287318       26.00120830760187
H           14.50819169217493       18.37968976613109       25.61249963152652
H           11.22351551596826       19.14983893067019       24.05187496141977
H           11.44715175571065       18.16500973746175       22.60595878532409
H           11.19379394145261       17.38683784039120       24.16819084691661
H           13.40567146574748       20.32528555243196       23.43570832585799
H           13.59088997717822       19.24083147482022       22.04400774988892
H           17.66083963106679       19.16684291707387       22.99310797108026
H           17.83990003762569       22.00564564648397       22.31005247183363
H           19.48061202577195       21.44388276720436       19.93293171881597
H           21.66030670408489       19.52194365550619       19.44630576328620
H           23.30200082735119       20.12205445015693       18.21437263186496
H           23.43558577766580       23.11506042824255       17.65330473289353
H           25.87093770164263       22.65770949753077       17.25272614977320
H           25.55037785001378       20.92373217017147       17.37442705026823
H           24.86023865294248       21.85802853880498       16.04764275158530
H           24.71619198626210       21.35260435248343       19.79137611675488
H           25.03180775163547       23.07576481800172       19.56381914908171
H           23.42737231481871       22.52650998422486       20.05186103228617
H           23.50921192405000       17.33276900323653       14.66232846628925
H           21.74576527471387       17.32012223532145       14.78491131237303
H           21.51643766003187       17.76311169976366       12.37082875449141
H           22.54995703725086       16.32687507435628       12.60620404399098
H           28.83586791943563       16.99953129419239        8.29599711779483
H           29.78276708170546       16.49438958665763        9.68797319344762
H           28.01179033206754       16.39829883335299        9.75793694582354
H           28.39343193098943       17.85330552272844       11.92160383108781
H           30.10584441613307       17.76263715120967       11.46329213111231
H           29.35250575704222       19.33621500694823       11.68410441044336
H           28.36874412950986       19.57180562766838        7.58627754961736
H           27.24314732606371       18.19880499086622        7.63319212919077
H           26.63052552055364       19.83587664105909        7.82269867201505
H           28.79452193256465       20.94305727016826        9.81416980633386
H           27.05224244160240       21.18900746460274        9.62582866003507
H           27.68903842943561       20.62060189078348       11.16312702615297
H           24.38669147625857       19.86874495084765       11.53108767100746
H           22.61541520689142       19.86627396511305       11.72998902708319
H           23.67552513999674       20.97923348758343       13.65640503047198
H           24.67180614137653       19.54688756229334       13.97635209753311
H           20.62178321219794       21.37291256002216       15.70450755063740
H           21.64087208464652       22.64582287816841       16.36480015132484
H           22.01665264527116       21.95940589758316       14.77603813800524
H           19.48132884117127       18.39600993236629       20.24729990685415
H           18.10138155867845       19.47635585511447       20.54757630606019
H           19.48438236266610       18.93758753322998       17.88052722007059
H           17.71723536223836       17.30447954709353       18.77802399979738
H           17.31134638075844       18.07560840825012       17.22186839077428
H           15.72709427632805       19.85553598627731       17.18307713658540
H           15.00372096180865       20.42085874225774       18.70489788191242
H           17.14218330398278       21.31156517564651       19.46428761991651
H           16.86517514286536       21.93203351178611       17.81212191078270
H           20.99650771474714       21.09905474016235       24.03246162461854
H           19.72300953149621       22.33953197299996       24.14573282111262
H           19.36514701129030       20.71250160911995       25.95256410780488
H           19.43373585840224       19.36560656183197       24.80694604470122
H           17.32758821710502       21.58467097193866       24.83673487388482
H           17.06190668119342       19.89257383156563       25.29018431417765
H           12.97059602262276       15.84422903056309       17.75172081981853
H           14.74100175701201       17.45880382151616       17.18689412999706
H           15.59252323271512       18.13568131152318       21.30878549347394
