151
 energy: -221.322720344380 gnorm: 0.004405253623 xtb: 6.7.1 (edcfbbe)
C            9.99683422804835       15.71579021289520       19.11797297809363
N           10.03542428758986       13.98983596343914       21.34692210323379
O           11.23965912105441       13.64674099193837       18.64303402826501
C           11.21235640127368       14.84049272048897       19.42396299930607
N           14.34365004093772       14.24227065405828       20.13392263041853
O           15.29720710978956       19.48811248600033       22.19880893661240
C           11.53202716218810       13.83985348982819       17.27689291389777
N           18.26117743586351       21.43954657520574       21.92352718630579
O           21.14234769035246       20.67552678082617       11.30493434673141
C           11.20544251156085       14.38832133658934       20.87188051285408
N           19.41786932297726       21.69272621989266       22.66948998420559
O           23.38990137306754       20.55320569890236       17.13691210851631
C            9.95101438649476       13.57460705616418       22.59813872277750
N           22.01594909869512       21.36590275566142       20.13184515695635
O           21.54279280977818       23.29986927376637       19.06943376205585
C           11.03728035188260       13.53387100571094       23.45794001691908
N           23.79779137476118       22.74040479312362       17.47421055382328
O           19.64272109090999       20.24405814573068       18.15074254260089
C           12.26444648508636       13.94847713870696       22.97137169250474
N           23.05299772897987       21.04554085416809       12.47043036040855
O           21.65831882554673       21.86499539610911       22.73055585523152
C           12.37259037322187       14.38441069343547       21.65225720950173
N           21.89549373852720       15.64574683629679       11.82398958399453
O           15.69926228827969       21.34723617570751       21.01112283236721
C           13.65570864367227       14.88215073598631       21.14266594196287
N           18.17562796141124       18.10093777747993       19.23266125558331
C           14.09793339057920       12.89013459147785       19.69725207003536
C           14.80482395436420       11.88051489675464       20.59966899375997
C           14.29895352187798       16.04465950599473       21.50400845656468
C           13.94272029185282       16.95985121969917       22.63341918926174
C           13.19413809934126       18.26700156437412       22.28769675399921
C           12.78806031020432       18.94766155758392       23.59786892101087
C           11.95241399986869       17.96770652696074       21.44976396057056
C           14.08161898797870       19.22452798115061       21.48354119889159
C           16.02529750520755       20.52802952576549       21.84236675908545
C           17.31992560205987       20.58631071885839       22.63631551385346
C           20.63418473955780       21.59207830493515       22.11266983860465
C           20.68416383368436       21.14915712679800       20.64641122431340
C           22.34124586358645       22.42471170273691       19.38539794731014
C           23.79911774037406       22.45236788003915       18.90984752465851
C           24.64955828657926       23.41495946024803       19.75495401410352
C           26.09701555251401       23.43474324907873       19.26714850669580
C           24.61274876285203       22.97455727764545       21.21869433420051
C           23.60301897020942       21.67797645046894       16.68115441260650
C           23.72938155571612       21.83874811360428       15.15482377883749
C           22.41088184739191       22.24437398536715       14.48718164589938
C           22.60552428118776       22.32426238483374       12.97051623381575
C           22.22730043757013       20.27902866163281       11.73941230711899
C           22.66048796587671       18.92833894624424       11.49117959036437
C           22.77398669196059       17.74824149245804       11.28059865352040
C           22.96747790156171       16.31527813486314       11.07005063199283
C           22.02927910095947       14.20985158053239       11.95581250908313
C           20.56135059966717       15.99681517119321       11.37755392269554
C           22.94815481290254       16.04011160480640        9.55297388865685
C           24.34466058438522       15.95048596794913       11.64407797905075
C           24.31032469811178       20.60847131437895       13.02681394465917
C           24.22597308153362       20.51999082626345       14.55186350883504
C           23.74412625387183       24.12092732077528       17.03541161973235
C           20.27881592815610       19.68532332891013       20.46723092931447
C           20.26262615993361       19.27334897736376       18.98255611634147
C           19.55269769589124       17.91596388572927       18.82588180202601
C           17.52483482985807       19.05127646891231       18.34126412337377
C           18.25665552175303       20.38859457299563       18.40755581500742
C           19.23835898530111       22.20431752995303       24.02099161015325
C           18.33702246760037       21.26031343645396       24.81232828508599
C           17.01810750056289       21.07485299677306       24.06629062974742
C           15.43907102782984       16.14219928044263       20.65150110348803
C           15.44635530053785       14.98906758932726       19.82663825089166
C           16.45206456314722       14.78967056884365       18.88606783839615
C           17.39137812842904       15.78403697721588       18.70290517150210
C           17.35745880845223       16.95920317015958       19.46685334361122
C           16.42292408737494       17.10790339044318       20.47300681629228
F           24.69496253560171       22.81797640548009       14.87881559358559
H            9.09452976212778       15.12095377609082       19.21968017473548
H            9.95951563046983       16.54125788081156       19.82163321296062
H           10.06017980128163       16.11690348394999       18.11022367423992
H           12.13585894373767       15.40880972149822       19.22443529128224
H           12.44079178865000       14.44045142777464       17.15405976450833
H           11.69038789588471       12.84581828016569       16.86398323448389
H           10.70589600204772       14.32320742273632       16.74829145605600
H            8.96502094136853       13.26775378484068       22.91910768025544
H           10.92369093229040       13.18934277811483       24.47290314039598
H           13.14286598255475       13.92919853420219       23.59998958454784
H           13.02101289036744       12.70741344147290       19.70358908185488
H           14.45583474688917       12.79215118798770       18.66980519902327
H           14.61651143972609       10.87185815202066       20.24397608945545
H           15.87763667858503       12.06064613988189       20.60267832470510
H           14.43494520588606       11.96521045101917       21.61888224683390
H           13.30994624508000       16.40821126561504       23.33106154940194
H           14.86506973380193       17.23165354605239       23.15032359458257
H           12.11642876192622       18.30770463310668       24.16359643097713
H           13.66640165368855       19.15262300447304       24.20403011926502
H           12.27869282844352       19.88706242901210       23.39667173890280
H           11.40015543322151       18.88136253192886       21.24425624696786
H           12.23513423322588       17.51401294073154       20.50340339907113
H           11.30058876806093       17.27861340030623       21.98070905032137
H           13.56974359806612       20.17330393365502       21.29732197688869
H           14.34603685112595       18.77912201049008       20.51963634429914
H           17.74558545983690       19.57800082684848       22.68892483915042
H           17.79847485571441       22.31146031944710       21.65786194772549
H           20.02501413901791       21.80342251098776       20.06667722426914
H           22.73367923176886       20.72059848678515       20.42368065764429
H           24.21558727578498       21.44362164262247       19.00607956653363
H           24.22505446024237       24.42018233864231       19.69377872807733
H           26.54001667908591       22.44767563248544       19.37479831272963
H           26.16785392147508       23.72822396652602       18.22510164312800
H           26.67240899881642       24.13871983913127       19.86168077028630
H           23.60111227826633       22.97631233312596       21.61772337410293
H           25.02220210945410       21.97282745569130       21.32540394215490
H           25.21424498738125       23.65237888200339       21.81776490004720
H           21.66143112109152       21.49202660677827       14.73876984736838
H           22.05918108337806       23.20749812430462       14.85386559387335
H           23.35732682197814       23.08414872533629       12.73492538394524
H           21.66571660166190       22.57384345826949       12.47505429251441
H           21.98644518970879       13.67449731358720       10.99461548277578
H           22.95872810602179       13.96470733111182       12.46214471250702
H           21.20418906860063       13.85688859137617       12.57311243404217
H           20.26384211608020       15.47750994703198       10.45377844207837
H           19.85408695412963       15.72676504433918       12.16213137010662
H           20.49498660290146       17.07156319072549       11.21347554504171
H           23.01265121879730       14.97000895951654        9.36996880476668
H           22.03690860358255       16.42505839482117        9.10195755232414
H           23.79739593923848       16.52669258517528        9.08150598803977
H           25.08711212624894       16.64639255597788       11.26146686770219
H           24.32440321335818       16.02081522879339       12.72799704261224
H           24.63147636296267       14.94591214015603       11.34799383148206
H           24.57153364874445       19.63574195817789       12.61004048598640
H           25.07806976745060       21.33959190784175       12.75166679343794
H           25.20917426743683       20.28662933331454       14.96163108122104
H           23.53332614355690       19.73584932297595       14.85707135603553
H           24.73213300317073       24.48631942693433       16.75186990369249
H           23.07710914926302       24.23093482587821       16.18693597579608
H           23.34400724353183       24.72395525890608       17.84512397463049
H           20.97906034347495       19.04244806229102       21.00010858600142
H           19.28097938564317       19.53656539744758       20.87221561673163
H           21.28346916514675       19.21594666288424       18.58922615872614
H           20.02094324537149       17.16985613894678       19.46767454820610
H           19.64659218336766       17.59907045340640       17.77237174475222
H           17.52917177063605       18.68017100627792       17.30046760531643
H           16.49084967443489       19.19500859982456       18.65812995319223
H           18.08699998045822       20.84447617439519       19.39047192533710
H           17.88889506901688       21.06479930046099       17.63373929210865
H           20.22967381102140       22.28490548880208       24.46683120963560
H           18.78789473079994       23.20192717560937       23.96474430565472
H           18.15686378607852       21.67759773539640       25.80188982641470
H           18.83454454341044       20.29646683501816       24.92598092958522
H           16.47622509029759       22.02310397258851       24.01920442082465
H           16.38944671456565       20.34067723166368       24.56875973762407
H           16.48826225855279       13.89462836774288       18.28324024955965
H           18.15540593724083       15.66339696151180       17.94901565981727
H           16.46444120453732       17.99111841949625       21.08326947903502
