151
 energy: -221.320890486611 gnorm: 0.007354729296 xtb: 6.7.1 (edcfbbe)
C            8.34292038978372       16.22676438078068       22.20837282710826
N            9.32251871336129       14.22299245435637       23.96279113853907
O            8.96053460560321       14.10522316728647       21.10594630890206
C            9.44786050259266       15.25302144820074       21.80255759147972
N           12.66207851301485       14.57590228368514       20.93473084403950
O           15.06325129365147       19.45427217247968       22.82509582062258
C            8.21444605537684       14.37005759466864       19.93626207004424
N           18.04381203007884       21.00492620547247       21.61131078045008
O           22.83409555736304       20.37271631593567        9.82681743026309
C           10.14002894417632       14.68916893505642       23.02858963104615
N           19.37443286441742       21.13753140089889       22.02087206799921
O           22.51351524139289       20.26458924124123       15.22231424177861
C            9.82314881272716       13.67942706103456       25.05669124143957
N           21.23329286082298       20.20433372023087       19.02190877895380
O           21.36182244473752       22.41135796150667       18.58805389160432
C           11.18507067050512       13.57738477583177       25.29445973899064
N           23.25911399599001       21.88332082572563       16.59785021698962
O           18.25965986708500       19.69540109476844       17.66982831561494
C           12.04498472909329       14.06923067333184       24.33158048276513
N           23.86540590310285       21.75438386020288       11.30747570307030
O           21.56189213163635       20.84575584900520       21.58594574675287
C           11.53349286672367       14.63336152873632       23.16112437611641
N           26.72547302448873       16.95722154398561       10.93503302265227
O           15.33444338907744       21.11818571886563       21.34837593359584
C           12.49724759929989       15.14439155725433       22.17944985567243
N           16.71246110426884       17.82997750374136       19.08392249033258
C           12.02283251922225       13.37729694052195       20.45003791739612
C           12.80895715467115       12.12865441343783       20.84467388892497
C           13.41642276205812       16.15358340460065       22.36830524454524
C           13.57649431752781       17.02720489845922       23.57166895866351
C           12.93883271941714       18.43295546085117       23.46784993576566
C           12.99140874409012       19.09801491406648       24.84564238439322
C           11.48470204693828       18.31395943522361       23.00922946569481
C           13.67928083138091       19.31989245718534       22.45901576110981
C           15.77912808954458       20.35575542967512       22.17883713190436
C           17.23237423797088       20.34294272892197       22.62886281824526
C           20.39082953239144       20.76271190168343       21.22755237808839
C           20.02806836376083       20.28651627965036       19.81520363506900
C           21.82862895624583       21.28304503126727       18.50086772071133
C           23.10536106531254       20.95600788746814       17.71676696181591
C           24.37631538261676       20.88838179451803       18.59011985742440
C           25.59018387601387       20.62609066215522       17.69834041320255
C           24.24797507472448       19.78377749602325       19.63940463714662
C           22.95263934998487       21.40963420020997       15.38651253920626
C           23.30816432325578       22.17099136797538       14.09869891507170
C           22.19379362155327       21.99824302773010       13.06198135888426
C           22.64849175306916       22.44489987636691       11.67010507578061
C           23.82565060675395       20.68468637772062       10.49028362473657
C           25.03766437171765       19.90811910862026       10.42299913192639
C           25.93120558309655       19.10409603795552       10.34052142437852
C           27.10408572438912       18.23292607166926       10.31160540602388
C           27.80346096886385       15.99839321199355       11.07219306594049
C           25.56056031700879       16.32771522642116       10.34479912202828
C           27.58185630830370       18.11612365201766        8.84941600014947
C           28.18408605512635       18.93239352111535       11.15699645689193
C           24.96596838864572       22.05044890811167       12.19345339276212
C           24.63574873614827       21.57107149327167       13.60766088039281
C           23.56494455968704       23.26773962947155       16.90148141120891
C           19.30540385486527       18.94193750842273       19.77312977078559
C           18.86075225370088       18.59650762454497       18.33839731991097
C           17.89006466745642       17.40362031727641       18.36101512215568
C           16.05530914100105       18.91556852338962       18.37241590828483
C           17.02017284131966       20.08760615352728       18.23832284671974
C           19.60981645726473       21.78862799597961       23.30249451011149
C           18.82544710705322       21.07647522086159       24.40060768351200
C           17.34985953047909       21.01537884831343       24.01070321301232
C           14.19770815436385       16.20633568956908       21.17853374902568
C           13.70809806769820       15.19752650501938       20.31316618948497
C           14.27983369969577       14.98213936660115       19.06287112104738
C           15.29838880418524       15.81761426222354       18.65702680664269
C           15.77014191288602       16.84024972730976       19.49188789526043
C           15.25678353515146       17.00542403877602       20.76067666277659
F           23.49757102920661       23.54140180932063       14.28190890499002
H            8.76318916564772       17.00443340521020       22.83854978533570
H            7.90006502717825       16.69264782441187       21.33254203631889
H            7.58086382537358       15.69059259844435       22.76630608391409
H           10.17982793152981       15.77376325425041       21.16134422545916
H            8.74874258556698       15.06268874564075       19.27762418218204
H            8.09898711969057       13.40816353264490       19.44084132340621
H            7.22716942271443       14.77385922431360       20.17284950341502
H            9.09336171734313       13.31378031547697       25.76553178206078
H           11.55711827408313       13.12490408036756       26.19900936006660
H           13.11563994778883       14.00821649495532       24.46166652332967
H           11.01009837644071       13.32053018029641       20.84979398976970
H           11.96072153409693       13.45001115481806       19.36111969503294
H           13.82795131655579       12.18820047770244       20.46855989115862
H           12.84223793310933       12.03121581186905       21.92725229429541
H           12.32961705216861       11.24697284899688       20.42986132678228
H           13.11802409030064       16.52833390311465       24.42717990502005
H           14.64125460536182       17.15295970314349       23.77642052268019
H           12.58676069304363       20.10558573578902       24.79447880966360
H           12.40433810550173       18.52899484418005       25.56174678288671
H           14.01716874854895       19.15406773111883       25.20089195243560
H           10.94439127359331       17.64824425084407       23.67753744869607
H           10.99837283618712       19.28591979740669       23.01499973646366
H           11.43200070041277       17.90697930455426       22.00255830333847
H           13.23170895491894       20.31842749736129       22.42180365220343
H           13.63200791414295       18.88818942082604       21.45472332030178
H           17.56926282253829       19.30363224119511       22.70836323816409
H           17.63447410832704       21.91510264408296       21.39335741518704
H           19.40438183473433       21.06624711507807       19.36308077457722
H           21.71983651447306       19.32290062000847       19.02644988274515
H           22.95735818366176       19.97508756474257       17.25235332361942
H           24.51059694456015       21.83858257702412       19.11505077288465
H           26.46990036080341       20.45268444155680       18.31278587301101
H           25.42006657922133       19.74719874097329       17.07957814413001
H           25.79001404271590       21.47246233078162       17.04691035855300
H           23.48051112643217       20.02618086189448       20.37071638331067
H           24.01768050987403       18.83302694623365       19.16451582300021
H           25.18913015280657       19.67432283220811       20.16830121754832
H           21.91936578669296       20.94177540670447       13.04696877500302
H           21.32366235897463       22.57826238863750       13.37266384676347
H           22.84053952664627       23.52123624754998       11.66367942759903
H           21.88146845838697       22.20484637098372       10.93241151796903
H           27.43203043803896       15.16706933459019       11.66955355928519
H           28.15266094973247       15.59548510539719       10.11010936729083
H           28.63894032365908       16.44786744033188       11.59847171619573
H           24.75978203687225       17.05694312154289       10.23550651003337
H           25.76135713008645       15.87379888184840        9.36224455316438
H           25.22168024130863       15.54025066346113       11.01711948760561
H           28.49258997618920       17.52322391498629        8.80429954628405
H           26.81979993534223       17.65037057691679        8.22809979758842
H           27.78902733281861       19.10643928913450        8.45254681609071
H           27.92138927495022       18.86928429120045       12.20880594808485
H           29.15674814384755       18.47766465823837       10.99657976267564
H           28.24505337272963       19.97846678419316       10.86876973131276
H           25.86955998656225       21.55784754336233       11.83460576723280
H           25.11540657095456       23.13405909428135       12.19696975253865
H           25.43555558621951       21.85029512484377       14.29341716426783
H           24.52534425664814       20.48536676882096       13.61145098744331
H           24.52510490860264       23.56629960724299       16.48139847091640
H           22.78528661279471       23.92566326207133       16.51905923764203
H           23.58613352500334       23.38244103238526       17.97901365375844
H           19.96926837162507       18.15618697858602       20.13390300900936
H           18.42214893471799       18.98064833206794       20.40606941748741
H           19.72856058993089       18.36387927691820       17.71368412387683
H           18.34070568707360       16.55724876599404       18.87937924412808
H           17.67323466860398       17.11454887106243       17.31730737555237
H           15.72098246788222       18.58825638398468       17.37231057439142
H           15.18437421350957       19.23971764548217       18.94425437208455
H           17.17251566164699       20.54017856673827       19.22407137813695
H           16.61773374410910       20.83763834202685       17.55656809076833
H           20.68347276415118       21.75884884285609       23.48537899100693
H           19.28846151102659       22.83365563018346       23.22501177780268
H           18.94847480109882       21.61660916576073       25.33811640660215
H           19.21569636789388       20.06637123365099       24.52791784114395
H           16.93517622462924       22.02528252148976       23.95673487088149
H           16.77939698894567       20.44419017068848       24.74153477617726
H           13.92932211522494       14.19502161871589       18.41263557444356
H           15.73552161119864       15.68787150478328       17.67765135493422
H           15.68331070403701       17.76232547498028       21.39559561586605
