151
 energy: -221.322868371243 gnorm: 0.007703321370 xtb: 6.7.1 (edcfbbe)
C            8.90809873687218       16.09024576824877       23.49965360198298
N            9.96874309839492       13.55583089502485       23.09569176550248
O            9.09596289846980       15.75950327980694       21.07774925103391
C            9.82461423628977       15.84226914978088       22.30360502632786
N           12.18688893408429       15.82588965555628       19.91897861736984
O           16.22928504053928       18.14918959675524       23.28086150541009
C            8.74062359769632       17.00752563154045       20.52698846732545
N           19.02982618347042       19.97729000897790       22.00970157117015
O           23.04999870968012       16.27793546450913       13.15341354084165
C           10.58233556833006       14.53534924656964       22.44912497888670
N           20.35415363988974       19.71493837723365       21.64648529436188
O           23.76538403158034       21.15942819674472       16.00899922899798
C           10.58681243246074       12.39875049525361       23.25562724089019
N           20.78614438456923       21.38903773352316       18.45158326625191
O           20.63313009224683       23.57107444573549       19.02478768629821
C           11.86964169344047       12.15169071985184       22.79292421966615
N           21.82421456820740       22.29735759991300       16.04406792211481
O           17.47751261092338       22.10897761152728       18.75848500894850
C           12.51740347937307       13.16631513226828       22.11247340509615
N           22.87909933313613       18.45129956574995       12.52344500706358
O           22.00613135911002       19.81533470269025       20.12693127530277
C           11.87007778674834       14.38522786681645       21.91620754992487
N           28.26881516597358       17.06098282645356       12.68893574090403
O           16.68697220217426       20.34243890283556       23.32885256574367
C           12.56303470165016       15.45683764214255       21.19103597772302
N           15.91143418522158       19.81070576599713       19.08924596127855
C           11.30275806999367       15.07961147306416       19.05934791416239
C           12.06762545276140       14.01912066489066       18.26920057715812
C           13.63725194897723       16.20437075477948       21.61662173326327
C           14.39018411846157       16.00840088802279       22.89550365379098
C           14.18581449164129       17.05149089900561       24.01879940831604
C           14.80042141570771       16.49325845728979       25.30574481071973
C           12.69878915148931       17.32954566399206       24.23319008326797
C           14.86948166738691       18.38209559362741       23.68216634652168
C           17.00277407495648       19.19907119083978       23.08050417013036
C           18.35225754702340       18.78736391460656       22.51304720072998
C           20.84801836767942       20.07571925280151       20.45372662069990
C           19.94419261804589       20.87465609771429       19.51036219595970
C           21.14240012016015       22.67927687047525       18.36207030872160
C           22.22159691328777       22.92673672862808       17.29790437630326
C           22.56960712396056       24.41837249363614       17.13799804935071
C           23.42008242751742       24.64737878125905       15.88956082927798
C           23.33478264174671       24.88552883757971       18.37482139837288
C           22.70323975869355       21.47052304700079       15.46398722392420
C           22.38800919805029       20.79501177245977       14.11840116696004
C           21.70631646965550       19.45140838764445       14.40769463145412
C           21.57848935636178       18.61706108113327       13.13100238420943
C           23.54963835185636       17.29309979763065       12.65948270729028
C           24.90392867627521       17.27379693220248       12.16795520130559
C           26.05348362741970       17.04472364372831       11.88995011277152
C           27.44677901960723       16.85509760560114       11.48759929356421
C           29.69759177167310       17.12856903967257       12.46034016622765
C           27.96855214901963       16.13643486027153       13.76503148514326
C           27.57363804171233       15.45036890019328       10.86050599806577
C           27.76460486508815       17.92212911969165       10.42788573283808
C           23.48035042997192       19.69878133172121       12.11678564454531
C           23.69041330052377       20.60091003942515       13.33390742605363
C           20.53561046363876       22.69213683209660       15.50885315951645
C           18.80330966158617       20.03290980624661       18.92817713792345
C           17.81791800906711       20.89183557201254       18.11428494587758
C           16.53947589396952       20.09040305880797       17.81738151665494
C           15.50613241755878       21.04622289599770       19.73555587803795
C           16.73527224531221       21.92565413487981       19.95342571443543
C           21.19512377531989       19.05635512606286       22.63731451971629
C           20.55237663684725       17.74047434665323       23.06063871788535
C           19.14981992033604       18.02531455147860       23.59112091006951
C           13.94776541644101       17.09182296028448       20.54306697105878
C           13.03399107221843       16.81177941718823       19.49531219573717
C           13.09421659560530       17.48605056977227       18.28110433292296
C           14.04366610063547       18.47478153668493       18.12473693479779
C           14.94043526311378       18.77990799216702       19.15723741560516
C           14.91022181855725       18.07436874233258       20.34491001150614
F           21.53984953575900       21.57296766651493       13.32474935664560
H            9.49768873906566       16.12143497038276       24.41089587113506
H            8.38396368946547       17.03569692156593       23.38793378968989
H            8.18704749341894       15.28247636643281       23.56788915848879
H           10.55734538452982       16.65969350851618       22.21403144790821
H            9.63044841676347       17.63016842881749       20.36823002644425
H            8.26858082785091       16.79098786696347       19.57141731146487
H            8.03548241864448       17.54836897116811       21.16476379538925
H           10.02318822698619       11.64447842555547       23.78681481479673
H           12.34278031919266       11.19690344541406       22.95600992392244
H           13.51583075340026       13.03050907693779       21.72340713605040
H           10.52904558224889       14.61316963940668       19.67233280617859
H           10.81899458231821       15.78024942587993       18.37502745703170
H           11.38833908785674       13.49061690510547       17.60749587239725
H           12.85098373463468       14.48411083879796       17.67422060378371
H           12.52621750123785       13.30091694958328       18.94537534529100
H           14.10021665660535       15.03880018907396       23.30492272760315
H           15.45679852925742       15.97380472732151       22.66410340311620
H           15.85360423914809       16.26944910337082       25.15615224614819
H           14.71220177308050       17.21481309899200       26.11393845017476
H           14.29035789347362       15.58210257658726       25.60434730274717
H           12.26229402139077       17.76383007768151       23.33713699562099
H           12.17590747673437       16.40442447945451       24.45895995762255
H           12.55268925615873       18.02375866730381       25.05691291414460
H           14.86697471938275       19.05343228861520       24.54734731430343
H           14.35337569898900       18.88602504066731       22.85823207019861
H           18.18002497099086       18.11325118556145       21.66593412423129
H           18.98236377668557       20.71582812146438       22.71366247982619
H           19.53820672215607       21.74133489043757       20.04130433218324
H           21.38541847587283       20.69744552593592       18.01958740524150
H           23.12433738883609       22.39658374208572       17.63035471712113
H           21.63882173824011       24.98758593641027       17.06569988996059
H           22.85898034956941       24.46399153713188       14.97822935715716
H           23.77291886587471       25.67364490117595       15.87184184031956
H           24.28406965835708       23.98484679323261       15.90142392582611
H           22.72832045028958       24.75880054279142       19.26775534207164
H           24.25022580235997       24.30963592630345       18.48921585409786
H           23.59452977337236       25.93546727866958       18.27960059664834
H           22.32508258376843       18.91943188377902       15.13263589591820
H           20.71975707819939       19.61580319350922       14.83963481833478
H           20.92183566462230       19.12223769923132       12.41815677899454
H           21.17980167966995       17.62827862933327       13.36529627068810
H           30.17534331286629       17.33520142928142       13.41768589001544
H           30.12334745116585       16.19411171234717       12.06441750308098
H           29.93251080639311       17.94504986756271       11.78296359572164
H           28.40353707727797       15.13744797234246       13.61041548570000
H           28.37394304842999       16.54465691710761       14.69096904766832
H           26.88970239586101       16.03617964075340       13.87694364339156
H           27.00297130994527       15.40932106628287        9.93802280901439
H           28.61559884015062       15.23711124593491       10.63663296216047
H           27.19211889666689       14.68830716683291       11.53574537966985
H           27.82095217568466       18.90052374065978       10.89541177225386
H           28.70412446507575       17.69991291145918        9.93033923704830
H           26.97437943444599       17.93369998524446        9.68106755783931
H           24.43583065114630       19.50321072771166       11.63014999821866
H           22.80408412382335       20.18869242360047       11.40882069444122
H           24.05338608128133       21.57860453171881       13.01250321764366
H           24.42624897287943       20.16545182945271       14.01002283028134
H           19.95432517638197       23.13696215546377       16.31377138352595
H           20.64494949260796       23.42422552956791       14.70753372425796
H           19.99506360620926       21.83104095031764       15.12268597661346
H           19.21892477716290       19.26361472265649       18.27726929841849
H           18.25570852073730       19.55632751148623       19.73844484476421
H           18.28512516644971       21.21430925886095       17.17792677713680
H           16.78660024940273       19.14941615031982       17.32598792407143
H           15.90002512405439       20.69497600805986       17.15095171305581
H           14.76527296595480       21.58835792864769       19.12204225502608
H           15.05924747237112       20.81981985191083       20.70310897231726
H           17.36178278985794       21.48176324517540       20.73406606718017
H           16.43688201085551       22.92826966270878       20.26093628866945
H           22.17197548326438       18.90467280317295       22.18065174988575
H           21.30012430855954       19.72173320673843       23.50123846355918
H           21.16328095374456       17.26894736714597       23.82834424979136
H           20.49686827578061       17.07157944706594       22.20044324127796
H           19.21114179717597       18.63076009230644       24.49948565779259
H           18.63057371095053       17.09861465278528       23.82714912224387
H           12.41028169842618       17.25330832035629       17.48000183102406
H           14.09314898796045       19.02147320961733       17.19496469460461
H           15.65110172508564       18.30375836943679       21.08795152446151
