151
 energy: -221.325518189137 gnorm: 0.009301690809 xtb: 6.7.1 (edcfbbe)
C            8.37984588766742       16.19819093525316       21.87182664812837
N            9.64843242069673       14.29703235249150       23.47573228616476
O            9.34860845733741       14.38316888602478       20.51043737830976
C            9.63517215002419       15.47904387185702       21.37850361149617
N           12.95217488085509       14.99842609750496       20.41999809366636
O           15.07640401843916       19.77651348204306       22.70507957117985
C            8.69920267897093       14.72841117391541       19.30427165372870
N           18.36387081711248       21.01930028784661       22.11660026582089
O           23.51722692533386       15.63793564664886       12.44562140433892
C           10.39398520926181       14.87757068946380       22.54559255550852
N           19.64864366626397       20.77678619693177       22.61862226526436
O           23.47846734074675       18.85478308274643       17.50624462359491
C           10.22862061220757       13.74368790317581       24.52486037913923
N           21.60679955908116       20.40968724211046       19.58183194592307
O           21.75044966059206       22.66004446112333       19.51614583345030
C           11.60100931547669       13.75051462991938       24.72124292889581
N           23.03804268828295       21.02206151421220       17.09859718962306
O           18.74382620955080       20.43320946675991       17.96084822663068
C           12.38612033118719       14.35453232126695       23.75856776154757
N           22.85442971132667       17.74149357743661       12.96670718576955
O           21.79977682901963       20.26229942836072       22.23180295276778
C           11.78953569302651       14.92269655068743       22.62953684000864
N           26.57173188051668       19.53188701735696        9.63201732026238
O           15.73190062670569       21.69696949819121       21.74277085189915
C           12.67766188032102       15.55781290929208       21.64691996374768
N           16.93593539975483       18.48005258643444       18.83487658644869
C           12.44757067184540       13.74248562682211       19.92548978410169
C           13.30160386749973       12.56699046236281       20.39621870039302
C           13.45484973525690       16.67613096179604       21.85343117393210
C           13.45431868676899       17.51969958133540       23.08861570670524
C           12.81811171786494       18.92648011389490       22.96952929483030
C           12.59693022945149       19.47816961488057       24.38123167321238
C           11.48331214779019       18.84444034540872       22.23100081750884
C           13.73429060614501       19.89164728872384       22.20590887948173
C           15.97219131325747       20.68252212691885       22.36074270301254
C           17.35249053135882       20.27751038870626       22.85787194893175
C           20.66441846951255       20.44750172456578       21.80799188141788
C           20.35716223813753       20.38177322091759       20.30776280178282
C           22.22117486847245       21.55609781284460       19.27169504146304
C           23.49979499533494       21.34745465834519       18.45101926441552
C           24.45903429116531       22.54118239903466       18.52023635091609
C           25.67320476348567       22.31984006803598       17.62278479234988
C           24.91191788183404       22.71759664485290       19.96972227346620
C           23.03060763267839       19.72940613703728       16.75637557387217
C           22.51415057247052       19.28772645869258       15.36946864152101
C           22.35943052815832       17.76418837799103       15.34972145938499
C           21.91499799243786       17.29157679062558       13.96799580898717
C           23.61534375421811       16.85741514381304       12.29851320427774
C           24.56090048353211       17.41122183787946       11.36495195164498
C           25.40244523082172       17.68846800510124       10.54951401041242
C           26.41010029990264       18.07287479434962        9.56463382203447
C           27.38408652488019       20.11352535928335        8.58454533835556
C           26.99765826725990       20.01165353118423       10.93204084054294
C           27.69197437417357       17.26941477786982        9.87400496701290
C           25.85927006497387       17.65276770155728        8.19169455320927
C           22.98811665442138       19.17646597800775       12.89605612728980
C           23.45175072176036       19.74131875730531       14.24558291181072
C           22.47266540437588       22.12647484552397       16.34756108593254
C           19.54722689114354       19.14967845673313       19.90985791119429
C           19.19159027773318       19.16476887946999       18.40982620533928
C           18.12602098013596       18.09557085349541       18.11244855701942
C           16.42627723889651       19.74272533191671       18.33041659838094
C           17.49527787584317       20.81749373142747       18.51787352775860
C           19.85119519137860       20.99010438010878       24.04508714532221
C           18.86024091738268       20.14086798354641       24.83672620778303
C           17.44198359702090       20.48298135004589       24.38308286439320
C           14.27861019758373       16.80399065559209       20.69673332928962
C           13.94727635925164       15.72976423222810       19.83049985330215
C           14.62475312268196       15.54194860808238       18.63025596273663
C           15.61454776484153       16.43772578327262       18.27991230703274
C           15.94768186684800       17.50765175776728       19.12138161166027
C           15.29930417574470       17.67252884177965       20.33057661041837
F           21.23982103210345       19.82645174742819       15.14434156563436
H            7.88055555375887       16.71239279884174       21.05547500308883
H            7.70596280553315       15.47290112958305       22.31832043001024
H            8.65775660761338       16.92918655958326       22.62531675780512
H           10.28803282278739       16.19026051151291       20.84427078102501
H            7.65030446675826       14.98496135278956       19.47243313603713
H            9.20813708327998       15.56370541531241       18.81174739237550
H            8.75675499239474       13.84259642926942       18.67552542852568
H            9.55519740566832       13.28301695780696       25.23274703713242
H           12.04039360340225       13.29995106006252       25.59669965443651
H           13.46153183658659       14.38867794762864       23.85518512895260
H           11.41431631337013       13.61219929272491       20.26157035842927
H           12.44952203481666       13.78927275609385       18.83298653829345
H           12.90870941976826       11.64118413767775       19.99023973743748
H           14.32935747696810       12.68891614355165       20.06614931086130
H           13.28873738782470       12.50121260448492       21.48163806245425
H           12.89951307228279       16.97974247340433       23.85878394090302
H           14.48253365983087       17.64125461502266       23.43585929585031
H           13.54210207737100       19.54025400692086       24.91456894749611
H           12.15865771393496       20.47259908253831       24.33492671045517
H           11.92284961043892       18.83418222101703       24.94047141813368
H           10.81516371372150       18.16875469858079       22.75675380613162
H           11.01526157871503       19.82350158939100       22.17221237948385
H           11.62872456266123       18.46883429789626       21.22132091952846
H           13.40171426067517       20.92753127137728       22.31599206852879
H           13.74777615699572       19.64665537478086       21.14015812967301
H           17.49282193726118       19.21143433714519       22.64034757542394
H           18.14610435819096       22.01721421355329       22.15085509697188
H           19.81852429849655       21.29586557211124       20.03661335157776
H           22.09076394230588       19.53278701987928       19.45046419059389
H           24.02043905253142       20.45963986918754       18.82559259385895
H           23.92746985632073       23.44692259816575       18.21754675900819
H           26.17539009796680       21.39274229582666       17.89524265172071
H           25.39642460918519       22.26235449741853       16.57547291689392
H           26.37276132088506       23.13928897433569       17.75183482602596
H           25.56952297118013       23.57877769746093       20.05125058074421
H           24.05740785416451       22.87453999855509       20.62384845264883
H           25.44860036445232       21.83609832647090       20.31216563917807
H           23.31770080994222       17.31826316262311       15.61689114594778
H           21.62673326470075       17.46763312771353       16.10184454465174
H           20.92679129684245       17.70046524480687       13.73608538575662
H           21.87640696277361       16.20129879178561       13.93352397224012
H           26.96288793101928       19.88542374108336        7.60918594293629
H           27.36795069331097       21.19561709841862        8.71466945357623
H           28.43453774980780       19.78424594261199        8.61061446041985
H           28.07289432425479       19.86885977442444       11.11454665394822
H           26.78102967271523       21.07822316959908       10.99035961529632
H           26.43938690265286       19.49916871160883       11.71316578993324
H           28.01628459160642       17.43915185706354       10.89746137618878
H           27.49528989505809       16.20875269313592        9.74831903649156
H           28.48740469618662       17.56089219758554        9.19397109001161
H           25.05049829368542       18.31669096921172        7.89952124008731
H           26.64230334047963       17.67531101051169        7.43928957306591
H           25.47208812223868       16.63861019680964        8.25499207693450
H           23.69896970504474       19.43835291463604       12.11274257092648
H           22.00938110162080       19.60142245258242       12.65100404298275
H           23.46960616500943       20.82824683053967       14.18698147843538
H           24.45267002729340       19.38065794889009       14.48323652032959
H           22.04931519275568       22.83845363882850       17.05385517079944
H           23.24665258652897       22.62663896922471       15.76371340068367
H           21.67232080601399       21.79943037564479       15.69510086477750
H           20.12498093460364       18.24854280148336       20.12122801702945
H           18.62276952115329       19.12155109667049       20.48391708409605
H           20.08919650262374       18.97739487555633       17.80944307542045
H           18.46301374127898       17.12007408265693       18.46321998547080
H           17.96856240767961       18.05582132018831       17.02105157219569
H           16.16158647357961       19.66120093103581       17.26296733934217
H           15.53755603247193       20.02661993832559       18.89289670496155
H           17.60196342646945       21.03808962645189       19.58686176173042
H           17.21685577469421       21.73146457243173       17.99125040380434
H           20.88505400259165       20.72561282903390       24.26547739780869
H           19.69727130679281       22.05256920427766       24.26485443785635
H           18.98071892258771       20.34003970144416       25.89967387250590
H           19.06231996781752       19.08436104137835       24.65386967353645
H           17.21440313607052       21.52457572526575       24.62512449153452
H           16.71057059214309       19.84275254772581       24.87450418544369
H           14.38999684323526       14.71338340132236       17.97881526551032
H           16.14283078578469       16.30759812491682       17.34711125375811
H           15.63001375718206       18.46487429496863       20.97603109904814
