151
 energy: -221.324571480967 gnorm: 0.007617551642 xtb: 6.7.1 (edcfbbe)
C            9.36061571133682       15.29278450920805       21.98714997481540
N           10.92750479405839       12.97088225777857       22.06045390286791
O           10.00393439562506       14.64212109016192       19.70930448135023
C           10.48801818957643       15.08312637012699       20.97730497813013
N           13.41541558244374       15.48292007998331       19.23144164298063
O           15.56687629781612       19.16407805839251       23.10625662017819
C            9.39374669614472       15.65294489258583       18.93630837666550
N           18.02833321138134       21.67352114069615       22.54283634088828
O           22.05265781886134       15.44556978226248       13.72908970213337
C           11.45943135039501       14.02277316295216       21.45474028246126
N           19.33712532172232       21.91366570729773       22.97622973585396
O           23.02452587190137       19.74404169149536       17.84279298608043
C           11.71469488531385       12.00230536537205       22.49317807917180
N           21.40511243094210       21.74809721689869       19.95457487607060
O           21.45621439812112       23.90217127311837       19.25764730043307
C           13.09463303332718       12.02957682202314       22.35838945638417
N           22.54611987676489       21.83727085653833       17.16281050658614
O           18.48037885068488       22.00776896004459       18.30326339059258
C           13.65939480642626       13.12390600741103       21.73014779509736
N           22.03993832559934       17.71050813350075       13.82602443725525
O           21.53921583459167       21.98116464030253       22.56574682105676
C           12.84073692413159       14.14723945717137       21.25287113516923
N           26.01998103528618       17.40717426364382       10.13218509376843
O           15.26860813908764       21.30306618219157       22.50333236335629
C           13.48440370970399       15.29215871415357       20.59401267007329
N           16.80624342001652       19.82890453521858       18.82782652480020
C           12.80949546674863       14.58919031199510       18.27741808805257
C           13.78832869570351       13.51458525722078       17.80846774778183
C           14.30196289618894       16.23853572972703       21.16967790652627
C           14.65554341171156       16.37597042000618       22.61542938631697
C           13.87241086277634       17.45098944402563       23.40463677148281
C           14.27162411791024       17.35847991329655       24.87986737617949
C           12.36824522068952       17.22184388654408       23.26805377936408
C           14.18183592949006       18.86076314957119       22.88794222339350
C           15.97461814250037       20.39872005866677       22.88894631520562
C           17.43724976473347       20.55221883821061       23.26900657163059
C           20.39257472843071       21.86215261467053       22.14748959950751
C           20.13122703368218       21.77403550910269       20.63916280594138
C           21.92820023272076       22.77296180877279       19.27649414332965
C           23.12351661492107       22.35110113953645       18.40812547650237
C           24.14293141167716       23.47989478177360       18.21898346998412
C           25.15205684015366       23.13515468353673       17.12799842929155
C           24.85323708020579       23.69320069800529       19.55660554666834
C           22.51856688220138       20.50599562490049       17.01260487600136
C           21.94175825711454       19.86198854387994       15.73971129784857
C           21.40880304834067       18.46334077134569       16.06375108848787
C           20.96233332659838       17.75125012407735       14.78881515639319
C           22.50647643498005       16.53497189640580       13.37128693477544
C           23.57228651350369       16.58945445781485       12.40428882715278
C           24.41815510864856       16.38335155733051       11.57097992148101
C           25.45035245898523       16.12690069133274       10.56777680826761
C           26.93110000744023       17.32552134095636        9.00742305865395
C           26.61755991437466       18.17422827096700       11.20812382945880
C           26.46660187727380       15.15528516448547       11.20702339755719
C           24.73883860061897       15.43027136418486        9.39500145302796
C           22.55096870612665       19.00509367652458       13.44694286157568
C           23.04832582399307       19.76569217030595       14.68147628363876
C           21.81614318552817       22.78566232818102       16.34367173738247
C           19.31256893413426       20.58221785884719       20.13705523168183
C           19.02091004642965       20.73796866202793       18.63287881797609
C           18.07253601034551       19.63107102760326       18.15558696952577
C           16.21482413437164       21.09207197092789       18.42605730720620
C           17.17461623743502       22.21238161522857       18.82634802416698
C           19.51313469762214       22.15336130262435       24.40182593756087
C           18.96126593885149       20.97340498299400       25.19870050381676
C           17.50769973130361       20.73651231582705       24.79758420405681
C           14.78190859961390       17.05018420919678       20.10060792680481
C           14.20744803116379       16.54675042632810       18.90629684852756
C           14.48079738366885       17.12926263587495       17.67263781131412
C           15.32506918551215       18.21696653331930       17.63898519486720
C           15.91909816301776       18.71039814815061       18.81021580516565
C           15.66589808244055       18.12319964744422       20.02981545231943
F           20.87590348118709       20.59536081696006       15.21343356999098
H            9.77841883839703       15.57571848577094       22.94844127703474
H            8.69084064667572       16.07937950058291       21.65263250131433
H            8.80495918797365       14.36651059653937       22.09921925954317
H           11.03758683932459       16.02686329919148       20.82755798927199
H           10.07542518421848       16.50083816072399       18.80147329311976
H            9.17271227329463       15.20028504522688       17.97187971681984
H            8.46417553097018       16.00580873398033       19.39003996506801
H           11.20800470658776       11.17542140150558       22.97229883596508
H           13.70422573935721       11.22193886922738       22.73009059502264
H           14.72906629668748       13.19575757491305       21.59361746215899
H           11.93580437421620       14.12113356703416       18.73511606616328
H           12.47537443850946       15.18455470488209       17.42519259741325
H           13.30806780092588       12.88235145153960       17.06811518545759
H           14.67155875597287       13.96738593096717       17.36484304418219
H           14.09789912363126       12.89467495780490       18.64597318248415
H           14.48163599877815       15.41721065858427       23.10859093464775
H           15.71879888358074       16.61292917989510       22.69231851929309
H           15.34773457051363       17.45889606027524       24.98927608352185
H           13.79029120564485       18.14800736493544       25.45192760719704
H           13.96725078348801       16.40087527179706       25.29153418525668
H           12.12406527710614       16.19716187221944       23.53286254481911
H           11.81761185744543       17.89101683311418       23.92434641105857
H           12.04775060973517       17.40226729043722       22.24630933088266
H           13.58000143420445       19.60786471121650       23.41617473790778
H           13.96862656770549       18.94769216401389       21.81878126959277
H           17.97821500929617       19.64310040864323       22.98660104283292
H           17.45068560267621       22.50487856192310       22.67392142216822
H           19.64103173253487       22.71205969860548       20.34839037721919
H           21.91319845970466       20.87673039696015       19.99676479370029
H           23.62987769735956       21.50017623954551       18.87374659044343
H           23.61354735203672       24.40298636430792       17.96583138428503
H           24.67870802283182       23.08767316824519       16.15218697796688
H           25.93181408215762       23.89062968197228       17.09799617383523
H           25.61226292869488       22.17202129158474       17.33794282870254
H           25.45006643188237       22.82136061132859       19.81132011729235
H           25.50550272880926       24.55926574960254       19.49901492478334
H           24.12891181531280       23.85992418829012       20.35061896714113
H           22.20330276493590       17.90721177539402       16.56076776254637
H           20.56496828914878       18.54868693072502       16.75055444815325
H           20.11226699782152       18.28359704879323       14.34921882084043
H           20.67006318312020       16.72386634856279       15.00986817751315
H           27.86196838539181       16.78773862746729        9.24001727715555
H           26.44625403639670       16.84971066444325        8.16107212315751
H           27.19455772909441       18.34259587838391        8.71970451807107
H           26.73933363886616       19.20454945078548       10.86815382143226
H           25.95760060897902       18.16351581991117       12.07391911121830
H           27.60647526727676       17.79369980458909       11.50866727288430
H           27.26586984491556       14.93377348347594       10.50409763109047
H           26.89289876319810       15.58274264734798       12.11160411971770
H           25.96643658892935       14.22733103181607       11.47075926746627
H           24.16045010451503       16.15686207640321        8.83224586636594
H           25.45906608575731       14.94855954433374        8.74018010867342
H           24.06407320782345       14.67041117021864        9.78192208638256
H           23.36354850525480       18.87567573781352       12.73046067714970
H           21.74457438797124       19.57775762417061       12.97454354090327
H           23.37302160419089       20.76321405304332       14.38613767925514
H           23.88998511846801       19.24051213691342       15.13521021976081
H           22.07374416264851       22.67743014667172       15.29315513099796
H           20.73860903556032       22.65994185808472       16.46591428050786
H           22.06970677771231       23.78751586902641       16.67366819598570
H           19.88085666546300       19.66489752357864       20.28563187789242
H           18.36820534797825       20.51412909676550       20.66922980862687
H           19.95777367298399       20.69152759197240       18.06595031693216
H           18.46739791348421       18.64920193102964       18.42107046198261
H           17.98264642833890       19.69641604470700       17.05537513228185
H           16.02446368209545       21.13755106722282       17.33756588417705
H           15.26943026915029       21.22144004077461       18.95770687112735
H           17.20836925826530       22.27987610641057       19.91990344990162
H           16.85074916896226       23.16867627776707       18.41341739659009
H           20.57867343949171       22.29736828932391       24.57691596917111
H           18.97490931733623       23.07092239893070       24.66342771869890
H           19.03172077944844       21.19006439072281       26.26262532909195
H           19.55482245062668       20.08422918090309       24.98325016319949
H           16.89865220838384       21.59957503194019       25.07803018089118
H           17.10576117128357       19.85446682101026       25.29245194349594
H           14.05086325875384       16.74519548924259       16.75964187014658
H           15.54425508473619       18.69214594199537       16.69304134155025
H           16.16924084270495       18.50253544878051       20.90297170336645
