151
 energy: -221.323815891573 gnorm: 0.008109266104 xtb: 6.7.1 (edcfbbe)
C            8.44223480213320       15.77472881775324       22.05183575358503
N            9.68378642232948       13.69759679753063       23.48931998186188
O            9.45439277303311       14.16291926478663       20.51394749007038
C            9.72486035621576       15.12372986706204       21.53696247171039
N           12.98020962609300       14.71800120255591       20.58972741043956
O           14.83276431955142       19.56133193954625       23.09800388889143
C            9.28434765583600       14.72225438980942       19.22939563536020
N           17.89534711636432       21.18770994164779       22.21075193620350
O           22.54520259236415       18.89564414881457       10.53447121932603
C           10.44297006301913       14.38976277040984       22.65281217631238
N           19.21865957301670       21.19626139069649       22.66220195997234
O           23.68680558446588       19.88881309991648       16.68142557715389
C           10.25163571200904       13.03652937852804       24.48332344610322
N           21.17156985526494       20.88171262963030       19.59579178686264
O           20.93003678656425       23.00922225294828       18.89453689467840
C           11.61710969654225       13.04925329853245       24.71977863024960
N           22.99022552829127       22.01963294530151       16.92182785111340
O           18.18010899399373       20.68226732647851       18.08242811897592
C           12.41757527052875       13.76865215444419       23.85128103536951
N           23.78603219734261       20.08580352877580       12.00918942139206
O           21.41206701633062       21.02958941234898       22.21601712388404
C           11.83701893798748       14.44475829973460       22.77855186630079
N           26.67285602535829       16.68311062828983        8.38925857645518
O           15.21330024505700       21.37895005443665       21.84509077770424
C           12.71574826056753       15.17975008687249       21.86093306315472
N           16.63354840455934       18.56600676468728       19.07060181049967
C           12.55912732045343       13.44918481408857       20.05045490605695
C           13.55775184685515       12.34286646636993       20.38902473555227
C           13.45013680344142       16.31336105017523       22.12521752452380
C           13.46368773412191       17.06860206945172       23.41645213768705
C           12.71232980786147       18.42137006122827       23.43773151853792
C           12.58139509392855       18.88017979275037       24.89329590040478
C           11.32221758026137       18.26942668056237       22.82175124620608
C           13.46822395769271       19.49518308577087       22.64931499416855
C           15.60280051757478       20.50325645194516       22.58571640553380
C           17.04323136372741       20.34985183757988       23.04707509933598
C           20.25059752408810       21.00526417335153       21.82434877658182
C           19.92851552952962       20.82486245407919       20.33557181117379
C           21.59965460069602       21.98421221672448       18.97409117462005
C           23.00506489275260       21.86385907889725       18.37423143523492
C           23.94478431895915       22.88270832790803       19.05194195217515
C           25.34643145915507       22.79405077462815       18.45626144285989
C           23.99905208864420       22.59914973258671       20.55227242332071
C           23.44208047363832       20.99442716216756       16.19031231413497
C           23.66642227047481       21.16536089206272       14.67743496074750
C           22.40277636603732       20.80728906866601       13.88990715538179
C           22.67569743631201       20.92926130414171       12.39065212259482
C           23.62334083698306       19.11753273234864       11.09074479045807
C           24.79076304626955       18.34198617238020       10.75241100512868
C           25.62473560162921       17.60125581065642       10.29559594851208
C           26.67574118479985       16.68227633295443        9.85694325008989
C           27.45194624101008       15.63632964636820        7.76055917462280
C           26.97803966721729       17.97454568274064        7.80678433150375
C           28.01383978376294       17.11360782862227       10.49371041217404
C           26.27566262702452       15.29803904683583       10.39592035145467
C           25.01799665873975       20.37164285156019       12.70377922020212
C           24.82353304276056       20.26940975653879       14.21915490896161
C           22.53651187613374       23.29551630337009       16.40358544899172
C           19.19225879218385       19.52509148246685       20.01161954950185
C           18.78070364546901       19.47623803602892       18.52834251287321
C           17.81846249923487       18.30166122767499       18.28678425016469
C           15.96992544533286       19.76841360926906       18.59611758779559
C           16.93281734600578       20.94920023514015       18.70497947743181
C           19.43850095094484       21.53452801497235       24.06225556437731
C           18.62126094553557       20.60731709353065       24.95568753287027
C           17.15165442409794       20.68535428978710       24.54644834090142
C           14.22499246492605       16.56306131615654       20.95454713966209
C           13.91625162464859       15.53737773207688       20.02457394751667
C           14.53809777215496       15.47858201429975       18.78204800982384
C           15.44274066144157       16.46643713399533       18.45129075056862
C           15.74874760233203       17.49453971500759       19.35316643930454
C           15.16822067253481       17.52314588158500       20.60599845651982
F           24.03666605912600       22.48433212542252       14.38484864574472
H            8.67719091027465       16.47229190005115       22.84971545354806
H            7.94042089952917       16.31444129664288       21.25290189565765
H            7.78324660856690       15.00254138950978       22.43547906245747
H           10.40169861137730       15.88883002393328       21.12785206317742
H           10.23801318893369       15.12500623750722       18.85498187082440
H            8.94771863450735       13.90594106722596       18.58942436602655
H            8.53347906048846       15.52265570970159       19.22691292623972
H            9.57278508856990       12.48452798299110       25.11861009906909
H           12.04127705919005       12.51390153438868       25.55338521235934
H           13.48894702115345       13.80990692570905       23.98373384637576
H           11.57381049574610       13.20279939927344       20.45243966873758
H           12.47439678355355       13.55302755947441       18.96657886788574
H           14.54303717882301       12.59347324264795       20.00200889815474
H           13.62955076404809       12.21632440975651       21.46709313651613
H           13.23252842363612       11.40546024884464       19.94824731535163
H           13.00612345209035       16.43441250798759       24.17738993996333
H           14.49911203941299       17.25593297669403       23.70489378236603
H           13.56271825694015       18.98672136626314       25.34834581920963
H           12.06936303283942       19.83782792251257       24.94398199687767
H           12.00851879168065       18.15623159163462       25.46698099738792
H           10.76814486121451       19.20184119047068       22.88486242835909
H           11.39643885710682       17.98195539178407       21.77682833105088
H           10.77062235638760       17.49872571586547       23.35314971962663
H           13.00676176238293       20.47888789502889       22.78154126646728
H           13.47172315223269       19.26234322296475       21.57958391267668
H           17.34565659779289       19.30659779833127       22.89611049686684
H           17.51377790437547       22.13423781201264       22.17747996094430
H           19.33454740558738       21.68546869425915       20.00931899592129
H           21.80403379101626       20.10587509284576       19.72910619398795
H           23.38851079583357       20.85586833571015       18.55700404208990
H           23.53492910869522       23.88477769992544       18.89735074672564
H           25.74246215627224       21.78870953734339       18.59035795881185
H           25.34624369433584       23.02136253240518       17.39322399201270
H           26.00598655892828       23.49609468933452       18.95758600084995
H           24.40111827754195       21.60499924707891       20.73752622169009
H           24.64159990096063       23.32651587175497       21.04432209670889
H           23.01059138698211       22.65193202337927       21.00394009425015
H           22.13845600088534       19.78086264471413       14.14238120425699
H           21.57246513830070       21.45561752920775       14.16383973571637
H           22.92006157747321       21.96859399737838       12.14758904874447
H           21.80267305392213       20.61879472436021       11.81433923546710
H           27.31138519546321       15.72159614832624        6.68409458651942
H           28.53009090935283       15.70553640832651        7.96814853229324
H           27.08954171852647       14.65998729919327        8.07047862458533
H           26.40703045532695       18.74797132339457        8.31793996133253
H           28.04833876229314       18.22862793227234        7.85015268432409
H           26.67638068767179       17.95912825811728        6.75932717616350
H           28.80976773862523       16.45178380790999       10.16163237663510
H           28.26272661486038       18.13535287546702       10.21948007679311
H           27.93953821201233       17.05309998027305       11.57581732732687
H           25.42904397944202       14.91478440530398        9.83346568094910
H           27.10819303881350       14.60453812918296       10.32631479837918
H           25.98518787465252       15.38652223760543       11.43929861780796
H           25.78425161785153       19.66866946854294       12.37664145166790
H           25.33369038426080       21.39123133802103       12.45485989889278
H           25.73830715056248       20.58195430352713       14.72447600276152
H           24.59557999736500       19.24801423735044       14.52021630942482
H           23.36570314973770       23.99267759593751       16.27993310650299
H           22.03763684818587       23.16893826699881       15.44736692217445
H           21.82004065650617       23.70590135448759       17.11128278933453
H           19.83873742642209       18.67379038446852       20.22201603870998
H           18.29548229630661       19.45164946838473       20.62139074752115
H           19.66816246169711       19.37504557201249       17.89470197170854
H           18.26867990458761       17.36628796890206       18.62038276973876
H           17.61225332216199       18.23941421383822       17.20366823379711
H           15.63900886311448       19.65142178449710       17.54790331003074
H           15.09651469383408       19.96894706038571       19.21819874079964
H           17.07348551005177       21.20073278677377       19.76215295435151
H           16.53132089243634       21.81683512109912       18.18036167620114
H           20.50765300734847       21.44170907760843       24.25087270401223
H           19.13495781567624       22.57549034654836       24.22088173441641
H           18.74328959880474       20.90604253281517       25.99580640563475
H           18.98246591761339       19.58418208575068       24.84287995759854
H           16.76808557876068       21.69323682870914       24.72149539045918
H           16.55095073771092       19.98063393982282       25.11818535831397
H           14.32070957399267       14.68542952588210       18.08270719139071
H           15.92211297590839       16.44558804641226       17.48352702636977
H           15.47727051914767       18.28992898849131       21.29324397604583
