151
 energy: -221.321864734227 gnorm: 0.007833057478 xtb: 6.7.1 (edcfbbe)
C            8.27505397814033       16.65820246110643       22.63740309061074
N            9.31817961970991       14.32432690206135       23.78704860939352
O            8.88568008298235       15.03205142842758       20.89852628799671
C            9.38295140624610       15.87092999531002       21.93772016196961
N           12.36963730871849       15.15452213234636       20.58859164061217
O           15.00291368421204       19.59234847758057       23.12119168672679
C            8.41163570823947       15.71943237333841       19.76227087691576
N           17.88231093446113       21.28736669253743       21.85474888890760
O           25.67549909698592       15.39391124128818       12.25046334800738
C           10.09154054447703       14.95187338016825       22.91318885760717
N           19.20834848957887       21.44484381906446       22.26736017968431
O           24.06050567836765       18.34590208136786       17.25160646451395
C            9.86329429654238       13.49890588513662       24.66289840181123
N           21.18514549029680       20.28495833967111       19.41525780072648
O           21.42766208812328       22.37330420393697       18.60324724738179
C           11.22643654991898       13.25612058728717       24.72793454785322
N           22.79657204267494       20.14903117580585       16.77004393750281
O           18.32168409902937       20.21012395792191       17.76936439107181
C           12.04224692044792       13.90807147721008       23.82175924361981
N           24.27198278500225       17.11381339040786       12.72237232786970
O           21.40082630625271       21.11514654320756       21.90593684725025
C           11.48160234524285       14.77068331961580       22.88050037281598
N           27.24850376828068       19.35606657594435        8.67564688122066
O           15.12424867053095       21.29077111339057       21.66320265491770
C           12.37276280013934       15.45020148857208       21.93269926915710
N           16.41655869094194       18.53943119805091       18.95448544075409
C           11.65843766978436       14.07173224449407       19.95575377089595
C           12.58653414828819       12.89681202888645       19.63959154763216
C           13.33804798707366       16.39118014014425       22.21432348754367
C           13.66859441859201       16.98493752262540       23.54648138849879
C           13.03731719833274       18.36616059808827       23.84041587083177
C           13.35747854177090       18.75217764321382       25.28667851032224
C           11.52152065841699       18.31362112384620       23.65243275905094
C           13.59298342236719       19.44234027480844       22.90051818282058
C           15.64000656627512       20.53246122057650       22.45227833309144
C           17.10183061427126       20.57717251835644       22.86191845748855
C           20.24086443077804       21.02350507504968       21.51787529252520
C           19.93346785262971       20.54223139301642       20.09364991436967
C           21.84073652569716       21.22854920385565       18.73564052113803
C           23.13127659090401       20.73204764142678       18.07043159804349
C           24.16044877139693       21.87153945018527       17.96081087269901
C           25.35624224044736       21.45857699948737       17.10579338843302
C           24.61654611592648       22.24682171850130       19.36906833077850
C           23.33436597446692       18.95839392001764       16.46913380625377
C           23.13646676625118       18.37475419023069       15.05587854705441
C           23.47794528104571       16.88252794858996       15.03025012383015
C           23.42898064233435       16.33397908737171       13.60062808572417
C           25.36607126004956       16.58164930582758       12.14639750511337
C           26.16262816186744       17.50289826831394       11.37388279287058
C           26.90785391085647       18.17907900505747       10.71181615206506
C           27.80826373471666       19.09122146674262       10.00800757434766
C           28.10560099656602       20.11843079690632        7.79124605334711
C           25.91205066768111       19.91695142343025        8.69766756223163
C           27.96918588359690       20.34650828038562       10.89433607106173
C           29.16074217146302       18.37149114035850        9.88693301576102
C           23.92675401345536       18.51311910616925       12.67547512561634
C           24.04541502967455       19.12299947894882       14.07381256752873
C           21.82427714639962       20.87386095090902       15.97487970216288
C           19.03534352489817       19.31563477076312       19.95861863863877
C           18.71266611868417       19.04218068397677       18.47690945745639
C           17.61496781363496       17.97529271518534       18.37295085094877
C           15.96834811333838       19.67891942772119       18.17523482312484
C           17.07383989282668       20.73419837871902       18.19869490468859
C           19.42298421722910       22.08984411136532       23.55608053095149
C           18.66413684452937       21.34228397431810       24.64945317613420
C           17.19391763692753       21.23399478079386       24.25381523867152
C           13.97554071910899       16.68691420834217       20.97374899923546
C           13.33827777924328       15.90098209444134       19.98272053317082
C           13.70905628997569       15.97739006134565       18.64385725550509
C           14.72180577618482       16.84564829547539       18.30274762665680
C           15.38182158332994       17.61032390274136       19.27698569350924
C           15.02998359515228       17.52027068797510       20.60544004420926
F           21.80042418852251       18.50320398464270       14.65268046003555
H            7.52487927315577       15.96553863233588       23.00362588470502
H            8.69486053780551       17.20406824956530       23.47594247734249
H            7.81838765286328       17.36638630752967       21.95258340957294
H           10.11682891008764       16.56756884922925       21.50013412948379
H            9.16152446964538       16.43001539903361       19.39506853659139
H            8.22652974805575       14.95564440540518       19.00974979276178
H            7.48088555544621       16.25401795292968       19.97031017110877
H            9.16971551683817       13.01762038801488       25.33462754716250
H           11.63177263550695       12.57677161965534       25.45961471593166
H           13.11107708885414       13.74970203890704       23.82438486223395
H           10.85825491596121       13.75146170426960       20.62421769552971
H           11.20297376643885       14.44444517179288       19.03323189810570
H           13.24838385670803       13.13580354014255       18.80719470977521
H           13.20087804676753       12.65261441419227       20.50627405494565
H           11.99370344516741       12.02631090522066       19.37298185660092
H           13.33210936504920       16.30112690480031       24.32718102335744
H           14.75206307762651       17.08833123728662       23.62249918077797
H           12.91064240104111       18.03921887851417       25.97377544371657
H           14.43194998111924       18.76548756468594       25.44711004848080
H           12.96118518683550       19.73949130667935       25.50950345629080
H           11.10756126068872       17.48055324329484       24.21459825629500
H           11.06041756632958       19.23247916396654       24.00311364026374
H           11.27010374359912       18.18080040887305       22.60356535344316
H           13.10888447981614       20.40674233757741       23.08708416118560
H           13.43051461892343       19.17578962804523       21.85229948635915
H           17.48659337548038       19.55320948707921       22.92332391065808
H           17.45040703694007       22.19106398122573       21.65955568505166
H           19.47618798412122       21.39532331500530       19.57574399230353
H           21.63241033039351       19.39964685438969       19.59832859781529
H           23.57077812330586       19.92476835558958       18.66449157871263
H           23.66798499615438       22.74089964589192       17.51307845355570
H           25.77770251957743       20.52787722452409       17.48159008892846
H           25.06795007196383       21.31121092244286       16.06855827499772
H           26.12084941632884       22.22904967395669       17.14509166996276
H           23.76802703683217       22.52635445138529       19.99202519199874
H           25.12197730649608       21.40429877544010       19.83576712583710
H           25.30590964601593       23.08610483730044       19.32825170558282
H           24.47239770894686       16.75490611067442       15.45672337539647
H           22.76792119960918       16.33875970938598       15.65352638939952
H           22.40049558616622       16.37478499076203       13.22794075577625
H           23.78339725942923       15.30268155141647       13.57901880615061
H           29.05655078720389       19.61053890537373        7.65823790664557
H           27.61456609739640       20.17577620901936        6.82132528715408
H           28.28915880753665       21.14646845329316        8.13942038298737
H           25.48946012901854       19.82833455718328        7.69732437825777
H           25.28992561811311       19.34839320610340        9.38554498088184
H           25.89182883569735       20.97883874627437        8.98556459592804
H           28.63149837403864       21.05923305841396       10.41010722198528
H           27.00753060738831       20.81971262654913       11.07573954306757
H           28.40111429582445       20.06320937014505       11.84950042124097
H           29.41002018407205       17.90894710621766       10.83876619598790
H           29.09848933517840       17.59446928017892        9.13040264174004
H           29.94919978655622       19.07222404871458        9.62851427756279
H           24.59465759861685       19.02823116720521       11.98477841248228
H           22.89405005943730       18.60867807418323       12.32178306226561
H           23.79463869330082       20.18075521402322       14.03144151751160
H           25.06930886234802       19.02034167893164       14.43685116464372
H           21.86955124676917       21.92472878663238       16.25025392226889
H           22.01692075004806       20.78015790116093       14.91203084660130
H           20.81292348905113       20.51127410198485       16.18228802181180
H           19.53345616249527       18.44077373367258       20.37505751026203
H           18.09975232079862       19.48171592269520       20.48537384948994
H           19.61152842915489       18.70585198991214       17.94888429209223
H           17.89801665213187       17.08241066067368       18.93105508595483
H           17.48429392544271       17.70557357641655       17.30941612213721
H           15.73834411743222       19.40306141975637       17.12882137087580
H           15.06976904965490       20.09122485800182       18.63902983445418
H           17.15403058594859       21.13654692052421       19.21469247942179
H           16.85199959415037       21.54454770346912       17.50284128466175
H           20.49662279695087       22.09308004764053       23.73949636409988
H           19.06483312529851       23.12319189082862       23.48654163634347
H           18.76639986036958       21.87786772707963       25.59182165905398
H           19.08881258194704       20.34487138195107       24.76833293731998
H           16.74294913621543       22.22832174251985       24.20943608880141
H           16.64069111287461       20.63421398730683       24.97508550170827
H           13.21408989261581       15.38724512164289       17.88824945164603
H           15.02062990452542       16.93930282356376       17.26821005517490
H           15.57962062380543       18.09194137794885       21.33481970036111
