151
 energy: -221.321885900869 gnorm: 0.008627227707 xtb: 6.7.1 (edcfbbe)
C            7.98603590870235       17.11419240968690       23.11297535218329
N            8.79631645065354       14.95772188426126       24.74909064117973
O            8.29498443353297       15.02366230807394       21.85037099670868
C            8.94918054801103       16.04007477291065       22.60635287100230
N           11.86178362422409       14.88733085204161       21.48237776706041
O           14.80989733957427       19.53425091906162       22.90875287952947
C            7.77181194780215       15.45358418746985       20.61300350423102
N           17.68791407166072       20.93690713024976       21.35987417620552
O           23.95621357156231       18.85808114887002        9.36524143781363
C            9.61038315237364       15.32785324514742       23.77026972537411
N           19.02713843834736       21.11001881898018       21.72671622502324
O           22.98530532402636       18.50969718780944       15.55264480454727
C            9.28776249382457       14.32311906785382       25.79738726991675
N           20.88209049957037       19.45873735630843       19.05684250757885
O           21.21286123475409       21.57051632185517       18.36410823608555
C           10.63500519285022       14.02963417324300       25.94173942488893
N           23.14220409086106       20.53369216094045       16.53270470907669
O           18.01931730743849       18.90049176455929       17.62680308508070
C           11.49280820771135       14.41305458655412       24.92706421950381
N           24.27921010587797       19.94426771447612       11.33262496847399
O           21.18596787381957       20.55616734710414       21.45575799169301
C           10.98743422564181       15.06717092995271       23.80397470892971
N           29.49710724847525       19.06681959510995        9.67716533314027
O           14.89350184163440       21.09225210150692       21.29742838441855
C           11.92037797894063       15.45098247551819       22.73861409199980
N           16.10469628302758       17.55560121388432       19.16037686748826
C           11.05958445731521       13.75603249490537       21.08811177191710
C           11.83218723892837       12.44627523045215       21.24880776781170
C           12.97440798570600       16.33398451325888       22.81877217360894
C           13.37211518559645       17.16929684681566       23.99330222850107
C           12.83760717072065       18.62217159278343       23.98718100460172
C           13.27452956903730       19.30943556739712       25.28396846649488
C           11.31195813217496       18.62739798802758       23.89806343428304
C           13.38521983916173       19.40668631778751       22.78905053745229
C           15.43008995329775       20.40114206803555       22.13250024472510
C           16.90204880284810       20.47556330188806       22.49920818163388
C           20.02193277437555       20.48782109445139       21.07420541764657
C           19.65863626949829       19.77547312275009       19.76365206452239
C           21.59794652151264       20.41157499028557       18.44464243895519
C           22.91420957988309       19.91216466269741       17.83472486506446
C           24.10735036400666       20.12066832100261       18.79536129413100
C           25.41074609627432       19.75221573409647       18.08653809314946
C           23.92881718210204       19.27127476425857       20.05235080884018
C           23.12824760148651       19.73248624807565       15.46129901568246
C           23.37684067260182       20.28861179798331       14.04831287186411
C           22.55667794484430       19.50162561601273       13.02229586580081
C           22.86367026162098       20.01181301679971       11.61745338222491
C           24.70806348205960       19.40917982315854       10.17468327249221
C           26.11045316691918       19.55865398492645        9.88186469959532
C           27.21988717171367       19.67547287585530        9.42986527104793
C           28.56372266889427       19.88559453111228        8.89410625943036
C           30.90047990239823       19.27531088005659        9.38602066174671
C           29.18479581210547       17.65062652812411        9.66165635535076
C           28.51530524669536       19.54790376329615        7.38859151855938
C           28.88046955786747       21.37957361491419        9.07410977328373
C           25.13151083359029       20.63758979293265       12.27135064266426
C           24.86669170380920       20.16360019457142       13.70390144027986
C           23.30564158729045       21.97326119642166       16.49453713401680
C           18.80950692533493       18.51852609667613       19.93388545989553
C           18.41882834231544       17.91649631071473       18.57060438728763
C           17.31330583500581       16.86519462779939       18.76163222097644
C           15.67959794310883       18.46272984374755       18.10757447013559
C           16.77314534465082       19.50805809047729       17.93045330940211
C           19.29796157565766       21.98527826994937       22.85956129923839
C           18.51302380856914       21.52709263252705       24.08484306146464
C           17.03548185208144       21.40716569208337       23.72008701303999
C           13.61357107727137       16.30532468528410       21.54484948805055
C           12.89014260394096       15.39196033904779       20.73875869108427
C           13.24025666233009       15.15969144108121       19.41184494426989
C           14.30774753459122       15.85547052321701       18.89018736501867
C           15.04382849873761       16.75205503877365       19.68040514709747
C           14.71903017497287       16.95959623943547       21.00371561629897
F           23.00364924772361       21.63099251360741       13.92446364131202
H            7.60512790846343       17.71036515032278       22.28847379289937
H            7.16179906806856       16.63304758393973       23.63112857196069
H            8.50733656364666       17.76804215000334       23.80470488346382
H            9.72234728216049       16.50292770910072       21.96986683032970
H            7.45383607317494       14.55121612525955       20.09474512511287
H            6.91298400928931       16.11602806467904       20.74470370336446
H            8.54007552030547       15.96699185498093       20.02285245838230
H            8.56321321480006       14.04149878131788       26.54926174988362
H           10.99992740192593       13.51272629843862       26.81441981110325
H           12.54988981407718       14.19782229520285       24.98544057503027
H           10.15159629852394       13.73389427812587       21.69223160973280
H           10.77325858258184       13.89015983806797       20.04223128581244
H           12.73562311907220       12.46312827697887       20.64394090656362
H           12.11401601179560       12.29838751684415       22.28963444818025
H           11.21107783617647       11.61330703580153       20.93278205017928
H           13.00536768196930       16.69372081664218       24.90345933763505
H           14.45957050092867       17.21382802148138       24.04118300226376
H           14.35576069113501       19.27567657495708       25.38819216345266
H           12.95877560467564       20.35002690303799       25.28698364109713
H           12.82751957294809       18.81172795456517       26.14014648395490
H           10.89183955749454       18.02863661202212       24.70259655764217
H           10.92708303386885       19.64042186542644       23.98192063182893
H           10.98420279906435       18.21086593381978       22.95018368757487
H           12.95327343628375       20.41058686060278       22.74348819525148
H           13.16024623240256       18.89415559573359       21.85008711905440
H           17.25348190336861       19.47460329121112       22.77010984137366
H           17.29141714731569       21.80898777798624       21.00443472068574
H           19.12274305030918       20.50898863584957       19.15115815516025
H           21.28687561284925       18.54884544008971       19.21670816583623
H           22.81839150530833       18.84077459267927       17.62981465993346
H           24.14247079905903       21.17098392743640       19.10084313919652
H           26.23059055768931       19.74339265329718       18.79988521041394
H           25.32711611695701       18.76337940962794       17.64013923244268
H           25.64763319434799       20.46319919116575       17.30034244983916
H           23.82468403098068       18.22075088112590       19.79201795787258
H           24.80247557126601       19.37913851470536       20.68994186989734
H           23.06042457162015       19.59467061229147       20.62041072600257
H           22.80790278105509       18.44702659259001       13.12365179724579
H           21.49408752859942       19.62686145763920       13.23244549920650
H           22.53388572410583       21.05424244538544       11.53472635725423
H           22.34113215474311       19.41413371081292       10.86819781791911
H           31.19320387663903       18.93444983702769        8.38069968995977
H           31.15935774389472       20.32396034196892        9.49769845223963
H           31.47744147441767       18.70544282798041       10.11421567695475
H           29.71274780507391       17.17339083760852       10.48649133926660
H           28.11627281406710       17.50823889292099        9.80558866870214
H           29.48614559723672       17.15309582521440        8.72838847477298
H           28.17287832732474       18.52766452075119        7.23057737160045
H           27.82242136153815       20.22130928614958        6.89019175201495
H           29.50054056816471       19.66823882105749        6.94484667715695
H           28.02210009026639       21.96970860452629        8.76288729884057
H           29.09172507326140       21.59037595236410       10.11848891855626
H           29.73243249394971       21.66642173915420        8.46423021632140
H           26.17392330596521       20.45094620977614       12.00693034783189
H           24.93278501896640       21.71546174743917       12.20927282670413
H           25.46506320418447       20.76339203018824       14.39124959770411
H           25.14278653414436       19.11513114909803       13.82111481429748
H           23.37507303647293       22.33955280203511       17.51414525703956
H           24.20568872070014       22.25015136721493       15.94671894344612
H           22.44047890746402       22.45263014888365       16.03551441499131
H           19.36575712496082       17.77234214925032       20.49942139534276
H           17.89872931358044       18.77327532530310       20.47111868385371
H           19.29044828935810       17.45421029415806       18.09652158201247
H           17.60041939102890       16.16705491892129       19.54973314038865
H           17.18953805623887       16.29924773940607       17.81718159973693
H           15.51306627901800       17.93909956747535       17.14836613145306
H           14.75201445135586       18.94858931071965       18.41448155671852
H           16.84558194611406       20.10828656183423       18.84528575317481
H           16.55985225381443       20.16053911367295       17.08237011373991
H           20.37249565951036       21.95662822872229       23.03434410539913
H           19.00604916226433       23.00446589817093       22.58144225341565
H           18.64818662426556       22.24818743035341       24.89004302285806
H           18.88979512697083       20.55958518329406       24.41730562397453
H           16.62990111278773       22.38995012362710       23.46418996862928
H           16.46250803458674       21.00266175840582       24.55378678041382
H           12.68391383020794       14.46674693969654       18.79787923234526
H           14.58268112728375       15.71180449100900       17.85423930057037
H           15.31684064098152       17.63672930036944       21.59008454445691
