151
 energy: -221.321657648323 gnorm: 0.009806325137 xtb: 6.7.1 (edcfbbe)
C            8.59871456207314       16.53849211762539       23.43998141045541
N            9.47042230043108       13.84089979588773       23.54573760712961
O            8.39862754676659       15.36174287069093       21.29911936322312
C            9.31793192359669       15.87109533273907       22.26671858043397
N           11.91721075051402       15.55052506409128       20.19787070976405
O           15.32585052736655       18.95037661420488       23.30895032485682
C            7.83544294144464       16.33751582362786       20.44870885610719
N           17.82030834361814       21.18374333527731       22.12818242824992
O           26.49229427107696       15.79634284032992       13.48031905117482
C           10.12345985173616       14.68156623066969       22.75719614460974
N           19.18238416385234       21.39446065799762       22.36335867368048
O           24.38317606904494       19.77367223521428       17.56500751151534
C           10.09165831257202       12.77783126112677       24.02290087032934
N           20.81099053480395       20.86933205702645       19.13848165415955
O           20.78358118447508       23.08626004866231       18.73866888777430
C           11.42030211131982       12.49262678855701       23.75018036295111
N           22.60548999338067       20.95447411626377       16.85198452326274
O           17.99826267069329       20.65592556769729       17.70201124301003
C           12.11071855017804       13.36153930594671       22.92639162122656
N           24.95969825179295       17.46070661470619       13.59087697701742
O           21.30118502747974       21.35280003473548       21.64678340074836
C           11.46523102095319       14.48137803525074       22.40057362288996
N           28.07439056880037       17.37272353787499        8.85665557522118
O           15.06639009581636       21.03173103819744       22.52837527090747
C           12.23282667099346       15.37825260298048       21.52883270735510
N           16.00856232094717       19.00548963640459       18.79199283342052
C           10.97286841678226       14.75717725383920       19.45094205041559
C           11.63836072504384       13.51495843282144       18.86092627795165
C           13.35879246390916       16.10360279327993       21.84949419229925
C           14.03454403266390       16.21745920036974       23.17741318571751
C           13.58885767577494       17.41774747012061       24.04465263371447
C           14.32500695935572       17.34832827277436       25.38395751903326
C           12.08122307683742       17.36711595378618       24.28255056483960
C           13.90462031942958       18.74907644583507       23.35303235136780
C           15.76759957551359       20.12155810470614       22.90855974582386
C           17.27420866068728       20.21422518994128       23.07225911709428
C           20.10532124013128       21.21490777504667       21.41103622397895
C           19.63336837710790       20.91017371717803       19.98068150021061
C           21.35342380997774       22.00623894036795       18.67702732085196
C           22.72460359025030       21.82977086073639       18.01352076583005
C           23.34219164419202       23.20359600546984       17.67664823476293
C           24.43511769213310       23.09686686110813       16.61815321332489
C           23.90057237701019       23.80586269796715       18.96453102082470
C           23.49724927271933       19.96333475590772       16.73076238320771
C           23.47756536578027       19.04184598938234       15.49573254723955
C           24.06711748220103       17.67641381237519       15.85918076160856
C           24.18973572968790       16.79711585138220       14.61904955156142
C           26.05714690837594       16.87702255631064       13.07939837792374
C           26.70358839611245       17.55549109058541       11.98482655966223
C           27.34030135381607       17.91552505280442       11.02664719748894
C           28.09078582948121       18.42679919387311        9.88101002736833
C           28.95288424039445       17.58396145659347        7.72589466218882
C           26.74429418275477       17.01339276506141        8.40591475405978
C           27.46739471587886       19.76403536839872        9.43194412431598
C           29.52591057018476       18.66907963470963       10.37825660577939
C           24.41649430773509       18.72806910339215       13.17052039552240
C           24.29335500260008       19.68076693920332       14.36527929947706
C           21.51950039436904       21.25613103075965       15.94144391986393
C           18.79614621068816       19.64520156228537       19.81220266197064
C           18.36466122803959       19.44486155347040       18.34415479477079
C           17.22318750628782       18.41757561392389       18.25889694896363
C           15.64002861144013       20.17730083036505       18.01932973814491
C           16.77103864791993       21.19077742007696       18.16889765513656
C           19.55420842763715       21.81807102553106       23.70590848596175
C           19.05073025683983       20.80190122773806       24.72771734989659
C           17.55011079197184       20.59814966159582       24.54072560954189
C           13.77452704950742       16.75005865344533       20.64795072199900
C           12.85100702763969       16.37813238038263       19.63991776829134
C           12.97042486657087       16.86687241290717       18.34378744701930
C           14.01054414409969       17.72628386784921       18.06710345802108
C           14.94752714253578       18.08883133615485       19.04879240057182
C           14.83985015014745       17.59179251216643       20.33114445614855
F           22.16805473595670       18.82515570811848       15.05172747360835
H            7.91652674628308       15.82038940219305       23.88261402278612
H            9.32301443650115       16.85045756398281       24.18471599022629
H            8.04275089502278       17.41057728402176       23.10741177704773
H            9.99115911180043       16.59049890231044       21.77313244349502
H            7.36042298148583       17.14920442751903       21.01003983608514
H            8.60112131458121       16.76428666618785       19.78612619018089
H            7.08449296722836       15.81590498546281       19.85813923118121
H            9.49274522427576       12.13297487718874       24.65103604002085
H           11.89390587108610       11.61764988122421       24.16486586171137
H           13.14326568247236       13.17766348029589       22.66770740868993
H           10.15485030158615       14.45980837972436       20.11128577273972
H           10.56220951441892       15.37579497443260       18.64879828880576
H           10.91578578886895       12.94896872509338       18.28111019920692
H           12.46582168155157       13.79958282359099       18.21501913750905
H           12.02097456837725       12.87978705070323       19.65653925590523
H           13.84525388769295       15.31186853105431       23.75577590004205
H           15.10979546305710       16.30163206264774       23.01119695466381
H           14.05902818095282       18.19578058007897       26.01004985842173
H           14.05948200840236       16.43643532263405       25.90936342768583
H           15.39870979599963       17.35908969901667       25.22661952921115
H           11.54882662283642       17.51799669500390       23.34794585076539
H           11.79845099715117       16.40045125142081       24.69054415933319
H           11.77836101216807       18.14260429072129       24.98212682335861
H           13.45785440821410       19.58569779504419       23.90298541250033
H           13.51696022557907       18.76802814020592       22.32952739712904
H           17.72371974944496       19.23946172000466       22.86173106806024
H           17.29994428104035       22.05940949218282       22.21011159528449
H           19.06236213355011       21.78562730391507       19.65072387753437
H           21.38961861468196       20.04475253008081       19.20100842376322
H           23.38648645202255       21.31769783242802       18.72240582818427
H           22.54234572246840       23.85721285902734       17.31179118989482
H           24.02594831520154       22.80411566172940       15.65860945798033
H           24.92143711105149       24.05771471030947       16.49960027445793
H           25.18027757745554       22.36570216386924       16.91617708050701
H           23.14403034927235       23.79344345092204       19.74535962260848
H           24.76009136813385       23.23363731562843       19.30684132744399
H           24.20603036833128       24.83371220109546       18.80071428589498
H           25.04115571127048       17.84028525027071       16.31832392749611
H           23.42179254158545       17.18932701555308       16.59027005221598
H           23.19086617689152       16.57839545811391       14.22471209050213
H           24.69316228653627       15.85995050278815       14.86268602111358
H           28.91439611599067       16.68870768202893        7.10608251964017
H           28.66101728924708       18.44155551639185        7.10049193507279
H           29.97699227380590       17.71616854444164        8.06075434156201
H           26.32184444293846       17.73553071443076        7.69192710382535
H           26.80058837288842       16.04305692601231        7.91272826463588
H           26.07853968126771       16.92591600237701        9.26099434505640
H           26.42184072612680       19.63302889708717        9.16471031203434
H           27.53058606481370       20.48655505013389       10.24125320179977
H           28.00825601312116       20.15492892313387        8.57430840001044
H           30.02200561760131       17.71764865209763       10.54742382150338
H           30.08989714883090       19.25338670566043        9.65700403530938
H           29.49572148383643       19.21679339793950       11.31690035968891
H           25.06752182107895       19.16472020496641       12.41102870142482
H           23.42205240860456       18.56102277205892       12.74127634861962
H           23.82132945757684       20.60583854047211       14.03604013587798
H           25.28072287376932       19.91405407250026       14.76474295931971
H           20.67296636907558       20.58761096498185       16.10554082366872
H           21.18903942808293       22.27228594090288       16.13295815091231
H           21.83227712488545       21.17689521644591       14.90442723610729
H           19.37117771409092       18.77358102211807       20.12355107196473
H           17.90223162709389       19.72746745852217       20.42753861704399
H           19.21745809573340       19.08756288985673       17.75582051899654
H           17.47550598713909       17.53101308067105       18.84198989834346
H           17.09495464801105       18.12041899687238       17.20084633283732
H           15.50101097639558       19.95466358259738       16.94632842315649
H           14.71506706051747       20.58966635148393       18.42611870695540
H           16.84876864225421       21.48323101376159       19.22319604712051
H           16.59143709875129       22.07637093859937       17.55692280229169
H           20.63974312588633       21.90788309705887       23.72779116161099
H           19.10739876219162       22.79969813136168       23.89477864007749
H           19.26203776171245       21.16591299744911       25.73290715627790
H           19.57324000148333       19.85537328880593       24.58460934823993
H           17.01305204937871       21.52212434163316       24.77340432616993
H           17.18162568337393       19.81042741274369       25.19634877464223
H           12.27079698739436       16.59201352765339       17.56952014582878
H           14.10970586253327       18.12344456479140       17.06783147032719
H           15.57512600407300       17.86988741433343       21.06892440362162
