151
 energy: -221.323344184804 gnorm: 0.009844392178 xtb: 6.7.1 (edcfbbe)
C            8.18468451770439       16.55203424024196       22.33904694851212
N            9.06497665308757       14.40893265531134       23.99930774416712
O            8.73444220495550       14.46938028939271       21.14208859708852
C            9.25824114113858       15.55825051494456       21.89972741696538
N           12.38528131518373       14.89629890842711       21.03277039250273
O           14.94324965840137       19.56854113005104       23.17533181156765
C            8.16907388517466       14.81787626432663       19.89740837344912
N           17.94654012111273       21.09342298233420       22.01261630249862
O           23.16895385111261       17.85665200556490        9.87163473322154
C            9.90886581662648       14.91503197567133       23.11100359370801
N           19.28950623315845       21.17789762573924       22.39813568322493
O           22.59708736220958       18.87105637211260       15.79727927529900
C            9.53790269221406       13.80205596962386       25.07268228515631
N           21.14812182887710       20.18969511308215       19.39181638903512
O           21.17140588045276       22.19022833041168       18.35420805599869
C           10.89289003951997       13.67504551746307       25.33605657031874
N           22.91841913821592       21.01177559913636       16.42510140120536
O           18.14051003017343       20.00619817743063       17.98601472492215
C           11.78154207284548       14.20715601731519       24.42060001476112
N           23.54370483299570       19.54032378141976       11.34367794190739
O           21.46623689046586       20.98730335618235       21.90292294494008
C           11.29921945215447       14.83571997896404       23.27164625178336
N           28.66992830249896       19.26680442415547        9.92297057783009
O           15.22704129634284       21.36917366744593       21.87110531699134
C           12.27080510508608       15.38167589344150       22.31865092173365
N           16.46821614874313       18.17372882018700       19.29475661108166
C           11.75628314652444       13.70701513770489       20.51606518029405
C           12.64717003841136       12.48070491815250       20.70797783629388
C           13.20645617066631       16.36642010335213       22.54548477399623
C           13.42948295832431       17.14532980778898       23.80317590736071
C           12.82104194233059       18.56769845473258       23.83354241410971
C           12.95570125931584       19.12893815186071       25.25235067556360
C           11.34553432458772       18.51327418726018       23.44065816913330
C           13.54204299526860       19.50590491782052       22.85815867796118
C           15.66881943492219       20.50866159616240       22.60363126107862
C           17.13136482634129       20.40766389573434       23.01190172276931
C           20.29162008358400       20.85501872121717       21.56885849941230
C           19.93388742211670       20.39716749397244       20.15198171683261
C           21.66955795106630       21.08890867452523       18.54853629869823
C           22.92781099560660       20.58990428980994       17.82384033618096
C           24.22045514834531       21.01457377215925       18.55563755368994
C           25.44173785753329       20.53624116753678       17.77108026555489
C           24.24941113047934       20.43550905401512       19.96836155174917
C           22.73530358083064       20.06108493389734       15.50037423433755
C           22.81639097801318       20.39564644965626       13.99852758451038
C           21.95371750271937       19.42036677863889       13.19192630713597
C           22.14757056161087       19.66436100761217       11.69711499524312
C           23.94677605392548       18.61893303952442       10.45296780306854
C           25.36007894010370       18.56057242772813       10.18329345824043
C           26.49175738944020       18.34786248799145        9.82933586876347
C           27.88397421011687       18.12167925636511        9.44750667764394
C           28.27769114165044       20.52787469970236        9.32238221373616
C           30.10832799038374       19.09833437769510        9.86799137032902
C           28.31870971031021       16.82775442569705       10.15459288145362
C           27.93077029670459       17.90223333293196        7.91914734948248
C           24.41271235341831       20.46111797694065       12.03658373018903
C           24.28110974654214       20.28923717158089       13.55317800175598
C           22.99816524949943       22.43167579241434       16.14440501039758
C           19.09512989498283       19.12234616895049       20.07645611002530
C           18.66746517334062       18.85105018157481       18.62214068474529
C           17.63533565519290       17.71561097509917       18.57389933576353
C           15.88361485673649       19.32655613756667       18.62711913961409
C           16.91745798577253       20.44580050778040       18.55763296553337
C           19.55711744100977       21.75980825503980       23.70810146792908
C           18.78371220141280       20.99454604132215       24.77885560389537
C           17.29900808327537       20.99866085013555       24.42551585195777
C           13.94664225890687       16.49297718103364       21.33443251267798
C           13.41286539060662       15.55327505800770       20.41756167635982
C           13.92717770332849       15.42742231835099       19.13088125681552
C           14.95084491437401       16.26787010403102       18.75061393038897
C           15.48133366320145       17.20868034959234       19.64497859609568
C           15.00862584678133       17.29773976489892       20.93701953898439
F           22.34827839032528       21.68180657277436       13.71105088018719
H            8.62535354268431       17.29028332777178       23.00129514095804
H            7.76143155172852       17.06690865875130       21.48135093993798
H            7.40296626813344       16.01681524664437       22.87004925919506
H           10.01996996054120       16.07887723536914       21.29584683523793
H            7.27423397226906       15.43382767817396       20.01834330145894
H            8.89473722258606       15.35038091161289       19.27286342159594
H            7.89257430786344       13.87929047460165       19.42436672136430
H            8.79007450599632       13.40420859675308       25.74475466220667
H           11.24164327717232       13.17138670566506       26.22220429940692
H           12.84856935206009       14.12507690945919       24.56836478714103
H           10.80286668155207       13.55472811995451       21.02523326759287
H           11.55559732111956       13.86004396729552       19.45191071477943
H           13.60967704235630       12.63115727545051       20.22498785867352
H           12.81342027866511       12.29872195679640       21.76686796831468
H           12.16782591280979       11.60767746509132       20.27524735422108
H           12.99470743113425       16.59248560852413       24.63751439562062
H           14.50413217177045       17.23523394651992       23.97135472823516
H           12.58553250245278       20.15148386933615       25.28953744577175
H           12.37817989932802       18.53084095370016       25.95363463557933
H           13.99680129432547       19.12519648214228       25.56479047835954
H           10.89115490904643       19.49830498550621       23.50586178016576
H           11.23373113690469       18.14423234130459       22.42316720092243
H           10.81449682014831       17.83913662278032       24.10753556699712
H           13.12739899339402       20.51962560026301       22.90863667245035
H           13.44082414743177       19.14856235840039       21.82835559431084
H           17.42405094206728       19.35247999412527       23.02890364816308
H           17.55492828399612       22.02590120530377       21.85338136558818
H           19.40357793813626       21.22486162965892       19.66594790593304
H           21.65702254531377       19.34046346523664       19.59050164995481
H           22.89543876298909       19.49580102791681       17.79103454072517
H           24.24615429228216       22.10566495197143       18.63401232616679
H           25.49755584932566       21.01282454289067       16.79639791334559
H           26.34696441061315       20.77293829529138       18.32196948970321
H           25.39599797531119       19.45882722705853       17.62412789067437
H           23.42414363361937       20.80024833409572       20.57152331714448
H           24.21217798643757       19.35032426795503       19.93711064282074
H           25.17170569478859       20.72549354586934       20.45730962396934
H           22.24571012164988       18.40671924467140       13.46103014384516
H           20.90616490287345       19.56115518689840       13.45863124369684
H           21.80464719745980       20.67317948159289       11.44271423694605
H           21.58388499758671       18.93508283024725       11.11223448445580
H           27.19199178142942       20.59053961785741        9.28151664597819
H           28.64985512953836       21.33683885063302        9.95026226379156
H           28.67990016372891       20.66663516725399        8.30806190171989
H           30.56380825489542       19.99862473659973       10.27523843352085
H           30.41144433728744       18.25861462675837       10.48671470958079
H           30.49441854555135       18.95493823128174        8.84802022729301
H           29.25934563977711       16.46722004612532        9.74869491583427
H           28.42165426356122       17.00099695359589       11.22193549737710
H           27.56147518339471       16.06252224170133        9.99764012957973
H           27.52038228017438       18.75823948691311        7.38942674794072
H           28.95847925102255       17.74315003762133        7.60059553955962
H           27.34365208741994       17.02577770736268        7.65792279607309
H           25.44399384621778       20.28068081792532       11.73444708016902
H           24.12730414069703       21.48279362960546       11.76328729010483
H           24.88372463156397       21.04853312934229       14.05257977173772
H           24.64214272965545       19.30381116655060       13.85052645363157
H           23.21408743860535       22.95601138151389       17.06873540793223
H           23.77960229092429       22.64421725824668       15.41698114137384
H           22.04534675780058       22.80710199136502       15.77169109551978
H           19.68035514353087       18.27645959077649       20.43431853401941
H           18.20160777799937       19.22257704889261       20.68699073725903
H           19.53936348879648       18.59100042643848       18.01148617535107
H           18.03005678718327       16.82483340589194       19.06173191152436
H           17.42519747168020       17.48266956123457       17.51471527529327
H           15.54273610947198       19.06793575780638       17.60762010513860
H           15.02492145783499       19.67187074901940       19.20623239061736
H           17.08278903278445       20.84513527838099       19.56499137392773
H           16.57045438734620       21.24855132055006       17.90604702975671
H           20.63351968993148       21.70767683898238       23.87139560653371
H           19.24639413205247       22.81156162494029       23.69595372331720
H           18.94778397738813       21.46292162176350       25.74892832247800
H           19.14885574100681       19.96729858799856       24.82402686086564
H           16.91403145521472       22.02160300654775       24.43796009061055
H           16.72752776444365       20.40442070692492       25.13759687551224
H           13.52783668897155       14.70407031691644       18.43544174870414
H           15.34645361608255       16.20466963317046       17.74719541049102
H           15.47673516669941       17.99711233817009       21.60691456847641
