151
 energy: -221.323820641802 gnorm: 0.007949971940 xtb: 6.7.1 (edcfbbe)
C            9.41747611573911       15.46535294348183       20.06700044399512
N           10.22440581446888       13.41536627058609       21.80235481227436
O           10.85737266969877       13.85272491151992       18.90427763149451
C           10.80320251311018       14.83321256742080       19.93998095157496
N           14.16955083024924       14.48971798645078       19.98675637303005
O           15.03758181821524       19.62032769754171       22.47941373262886
C           10.86358803089121       14.38379344991364       17.59799419942415
N           17.83040114253802       21.77576661193766       22.02985741691867
O           20.91884847653718       19.46599457700141       11.73760373373945
C           11.18434364074811       14.12457412826758       21.22608434889198
N           18.88267564987172       22.29835161063258       22.78477827957761
O           23.46877655429661       20.13463743648802       17.77148833903036
C           10.47604641346122       12.77883882014397       22.93224795943278
N           21.73204793432645       21.61116651166774       20.60639953339529
O           21.36369603021351       23.41551109663544       19.31737082183206
C           11.70372397921601       12.82849734140886       23.57334372732813
N           23.50645108625623       22.39072339016642       17.76011668709058
O           19.95279514048221       20.24372475787857       18.51596742247920
C           12.71367264474177       13.56183678766371       22.97750340913743
N           22.65939197417201       20.03182626999300       13.07676179619515
O           21.09619737765836       22.64981443756282       22.99086091314595
C           12.47266785258064       14.21878355664869       21.77114290006847
N           23.27801892424107       15.89611559916650        9.08867851309359
O           15.37166053746324       21.25721862921630       20.98783717007846
C           13.58031214826364       14.95135479338323       21.14353649491557
N           18.06297738350496       18.36305505094773       19.38765943545515
C           13.90075468413885       13.22961295435325       19.33830867013363
C           14.78158960057686       12.11552548697150       19.90017219357488
C           14.23453856327441       16.07382522172942       21.59955435296535
C           13.92172502413794       16.87515806631270       22.82380952999903
C           13.08890264819558       18.15903398027774       22.59609121411097
C           12.74229549651849       18.76724061609718       23.95830043566696
C           11.79873522616420       17.83024617824654       21.84492272783767
C           13.86246724696204       19.19141533831737       21.76957351201647
C           15.69531900688213       20.65062092422415       21.98643389600348
C           16.88956880816851       21.02342044487871       22.84928549211111
C           20.15480721472668       22.16667738449403       22.37168182078452
C           20.35682598028644       21.47281500602265       21.02211484046132
C           22.11532658748075       22.53786725549856       19.72691615199279
C           23.55434703058320       22.38081438511841       19.22077947277641
C           24.50174999474010       23.43284026895005       19.81677131459922
C           25.92733640003623       23.20176247881136       19.31997717763538
C           24.45561118253740       23.34661963290677       21.34224762222340
C           23.46416829379975       21.20059078902093       17.15015289228823
C           23.42563001298742       21.14546223852780       15.61549767427860
C           21.98258520463191       21.21873331799004       15.10811318334636
C           21.98114188301128       21.20494898260237       13.58156008486649
C           22.06318442451497       19.25980733226458       12.15058587032880
C           22.83619667248394       18.16174450847861       11.63071832650044
C           23.29770190449237       17.22284461052964       11.03322181902839
C           23.93899958090322       16.08096646036688       10.38521506203177
C           23.58443078842564       14.66109977059697        8.39642978946209
C           23.40382270694903       17.03343845332156        8.19943466270433
C           25.45753932549385       16.35228457106894       10.30118143166612
C           23.68917871548264       14.86801724786320       11.29623286150006
C           24.00810043355890       19.83589483896797       13.55688895745937
C           24.05995646457450       19.85623465838611       15.08705006075779
C           23.32563179502524       23.67912115190717       17.11949471431337
C           19.95580592074554       19.99758753936962       20.98020591060447
C           20.25033194128362       19.37325947946593       19.59953839550418
C           19.47717576416640       18.05146376069772       19.46184808526954
C           17.79226734786729       19.16837095783824       18.20985439142692
C           18.56539833456269       20.47577498784155       18.34433465600423
C           18.53427272061887       23.09895133323989       23.94970291109115
C           17.60594956304422       22.30535396018461       24.86460025002389
C           16.39337724439497       21.82784220713296       24.06652014646151
C           15.29864420163436       16.31475847055614       20.67902853592485
C           15.22690255712718       15.30055013417002       19.69112890105879
C           16.12496349071800       15.25436361107371       18.63013983958966
C           17.07436429172139       16.24725133745909       18.54373051379278
C           17.15852096684326       17.26059691239804       19.51097120889694
C           16.30183679104356       17.27991363521982       20.59078438374446
F           24.17074211481993       22.20805158009041       15.08170509574463
H            9.40249880554976       16.14396085670824       20.91342295407996
H            9.16466932937651       16.02075547501772       19.16889740651636
H            8.68606580785940       14.67905283786301       20.22651352957429
H           11.55501637450153       15.60943948516550       19.72215448633279
H           11.00380979846761       13.53525680214502       16.93315549240876
H            9.92082803886985       14.88133587597877       17.35563548550355
H           11.68854358272393       15.09588197262187       17.47198072014883
H            9.64927191981631       12.20936276488870       23.33354971277861
H           11.86316870354214       12.30512571658961       24.50107456678466
H           13.69474614351069       13.62234192040248       23.42489851234628
H           12.84681723862974       12.97830352209937       19.47016231388875
H           14.09108001660829       13.35298854516523       18.26967031098823
H           15.83256685847732       12.37331760863950       19.79195170721198
H           14.56759127725819       11.96016556136896       20.95473359823575
H           14.58847688051451       11.19025674336671       19.36559842506799
H           13.36223106535855       16.24663745265331       23.51803574490552
H           14.86030340178902       17.16423677392126       23.29927697298958
H           13.64662418938128       18.97184535786432       24.52367821146530
H           12.19724147548740       19.69984291280380       23.82498992552841
H           12.11775927936255       18.08422994527949       24.52822792955580
H           11.14031980030844       18.69381124758936       21.81631154121706
H           12.01381546055960       17.52995296498210       20.82278199752413
H           11.28072583941224       17.01361464507485       22.34332530841950
H           13.24404472475894       20.07218210000396       21.57194688242138
H           14.17504182605955       18.77250028622100       20.80897872630183
H           17.38797732492937       20.11088647221925       23.19558673971522
H           17.33335075479845       22.50710459808314       21.52542712355533
H           19.76885918572169       22.04346907468918       20.29318794791313
H           22.40022112077079       20.95594937783836       20.97985366527162
H           23.91502635216428       21.38513545583043       19.49901822897053
H           24.16553751828249       24.42877959158730       19.51866555300821
H           25.97648933062387       23.21457231371333       18.23499330212076
H           26.58429407187884       23.97638769015901       19.70511434163007
H           26.29061463472017       22.23576747132207       19.66444961723084
H           25.11200249753013       24.09765425725457       21.77199987564485
H           23.44868770101051       23.51521913938330       21.71942232102057
H           24.78915569466365       22.36782402034494       21.67802294141465
H           21.45329630141892       20.35342397311389       15.50600320421595
H           21.47492453818384       22.11167854976541       15.46714021878653
H           22.49185979441526       22.10122241513427       13.21132735763015
H           20.96091978683874       21.19039953471213       13.19354064456432
H           23.29556489795037       13.80855571221414        9.00483038155195
H           22.99229192116530       14.63985681423322        7.48295953338925
H           24.64489386895189       14.56453791577257        8.11579321152749
H           24.39481795009483       17.10651473401176        7.72583451741203
H           22.65672493161579       16.93683752796933        7.41152524203792
H           23.20392639497778       17.95159201407320        8.74983356877247
H           25.87045325510515       16.42094153869318       11.30400427404638
H           25.95027428765885       15.53818705637720        9.77623376665165
H           25.65728795323889       17.28575698974234        9.78045015288910
H           24.31196627115682       14.03057993042005       10.99581729337723
H           23.93373167057809       15.13024288003767       12.32241649906848
H           22.64210622999843       14.58174080746454       11.25016847622596
H           24.37979353849762       18.88048643293408       13.18281962498098
H           24.64537342085215       20.64186048108666       13.17067359086143
H           25.09827178363324       19.80122642582745       15.41475100984483
H           23.51876654226237       19.01343148116958       15.51472353075999
H           24.28994079676849       24.12312679366878       16.85762634703485
H           22.72785646023920       23.59073678571412       16.21713618897519
H           22.78806388750673       24.32657332024532       17.81055519829791
H           20.51125431414243       19.44137276883315       21.73411216743991
H           18.88957192339030       19.91104150657395       21.17610330039706
H           21.32326737930050       19.18867560845178       19.47952133658561
H           19.65677448105624       17.42630485328110       20.33755123337489
H           19.83924184537425       17.51874148271517       18.56404818962741
H           18.09405528970047       18.65843209209045       17.27633617214009
H           16.72260874631775       19.38079567458766       18.16670722234400
H           18.15613294477252       21.04167152765979       19.18883188614417
H           18.48438355697440       21.07295466501268       17.43462051523213
H           19.46673453681567       23.36414097809997       24.44775113575716
H           18.03764876823431       24.01431511011287       23.60831549003041
H           17.28870068697121       22.93727027871202       25.69238714552211
H           18.14306872355200       21.44605396792759       25.26794145601347
H           15.81692429622059       22.68667888557512       23.71457211950030
H           15.74701281732632       21.20280691865748       24.68047009260519
H           16.07967952673627       14.47513246587955       17.88527613704326
H           17.76863781722140       16.25278147945305       17.71527801000690
H           16.41725400221480       18.04722008958726       21.33761835089919
