151
 energy: -220.939629823745 gnorm: 0.313568584867 xtb: 6.7.1 (edcfbbe)
C           -9.20500000000000       -2.31100000000000        4.64000000000000
N           -8.10400000000000       -4.46800000000000        6.37100000000000
O           -8.80200000000000       -4.35600000000000        3.09000000000000
C           -8.24500000000000       -3.42800000000000        4.11700000000000
N           -5.02900000000000       -4.65200000000000        2.95200000000000
O           -2.16100000000000        0.92400000000000        4.99200000000000
C           -9.87800000000000       -5.21700000000000        3.56100000000000
N            0.57700000000000        2.43600000000000        4.11400000000000
O            4.59300000000000       -1.58600000000000       -5.78300000000000
C           -7.41600000000000       -4.04500000000000        5.24500000000000
N            1.94500000000000        2.42400000000000        3.72100000000000
O            3.32100000000000        2.27800000000000       -2.76600000000000
C           -7.40600000000000       -4.37900000000000        7.51200000000000
N            1.17400000000000        2.79400000000000       -0.11000000000000
O           -0.11100000000000        4.56800000000000       -0.63400000000000
C           -6.01300000000000       -4.35700000000000        7.63200000000000
N            1.61700000000000        3.64800000000000       -3.18400000000000
O            0.93600000000000       -0.06000000000000       -0.66500000000000
C           -5.30900000000000       -4.32000000000000        6.43900000000000
N            4.19000000000000        0.42000000000000       -6.76200000000000
O            3.26900000000000        2.41700000000000        1.84700000000000
C           -6.00000000000000       -3.99700000000000        5.25200000000000
N            8.47500000000000        0.62900000000000       -9.32500000000000
O           -1.51800000000000        2.77700000000000        6.27500000000000
C           -5.19200000000000       -3.77300000000000        4.06700000000000
N           -0.69900000000000       -2.16300000000000        0.50800000000000
C           -5.92600000000000       -5.67000000000000        2.44400000000000
C           -5.81400000000000       -6.94400000000000        3.19800000000000
C           -4.25200000000000       -2.75900000000000        3.89500000000000
C           -3.75400000000000       -1.69200000000000        4.90600000000000
C           -4.36600000000000       -0.27600000000000        4.75200000000000
C           -5.79100000000000       -0.29000000000000        5.40500000000000
C           -4.52900000000000        0.22400000000000        3.30100000000000
C           -3.50000000000000        0.79200000000000        5.45400000000000
C           -1.25600000000000        1.74000000000000        5.63800000000000
C            0.18900000000000        1.63800000000000        5.30300000000000
C            2.19300000000000        2.65500000000000        2.37800000000000
C            0.96500000000000        2.56500000000000        1.38700000000000
C            0.98600000000000        4.01400000000000       -0.71600000000000
C            1.88600000000000        4.42400000000000       -1.90900000000000
C            1.98100000000000        5.96500000000000       -2.14800000000000
C            3.19600000000000        6.12800000000000       -3.10600000000000
C            2.36400000000000        6.68400000000000       -0.80300000000000
C            2.67300000000000        2.88400000000000       -3.64100000000000
C            2.80600000000000        2.38800000000000       -5.14400000000000
C            2.29200000000000        0.93200000000000       -5.15900000000000
C            2.72400000000000        0.23600000000000       -6.52700000000000
C            5.08000000000000       -0.56900000000000       -6.30300000000000
C            6.42500000000000       -0.55900000000000       -6.81700000000000
C            7.49900000000000       -0.37700000000000       -7.34700000000000
C            8.76200000000000       -0.03600000000000       -7.99000000000000
C            9.52000000000000        0.36000000000000      -10.32700000000000
C            7.84000000000000        1.98200000000000       -9.29000000000000
C            9.64000000000000        0.92000000000000       -7.14400000000000
C            9.40900000000000       -1.44000000000000       -8.17800000000000
C            4.47000000000000        1.82800000000000       -6.95400000000000
C            4.21400000000000        2.62200000000000       -5.65000000000000
C            0.23500000000000        3.49800000000000       -3.70800000000000
C            0.28200000000000        1.14600000000000        1.52500000000000
C            0.91300000000000       -0.10700000000000        0.81500000000000
C            0.44500000000000       -1.53700000000000        1.23900000000000
C           -0.63300000000000       -1.98600000000000       -0.97200000000000
C           -0.24100000000000       -0.58500000000000       -1.36300000000000
C            3.01000000000000        2.55200000000000        4.74600000000000
C            2.50200000000000        1.82800000000000        6.06400000000000
C            1.10200000000000        2.13400000000000        6.44100000000000
C           -3.48400000000000       -3.01600000000000        2.68900000000000
C           -3.80700000000000       -4.34200000000000        2.29500000000000
C           -3.18700000000000       -4.90500000000000        1.12600000000000
C           -2.07200000000000       -4.18100000000000        0.72300000000000
C           -1.77000000000000       -2.89600000000000        1.05800000000000
C           -2.48600000000000       -2.25000000000000        2.02500000000000
F            2.17000000000000        3.33700000000000       -5.85700000000000
H           -9.16100000000000       -2.19100000000000        5.72600000000000
H           -8.93600000000000       -1.44200000000000        4.03300000000000
H          -10.24800000000000       -2.45300000000000        4.34400000000000
H           -7.54200000000000       -2.84400000000000        3.51600000000000
H          -10.30300000000000       -5.86300000000000        2.78700000000000
H           -9.45400000000000       -5.96700000000000        4.23500000000000
H          -10.64100000000000       -4.55500000000000        3.98100000000000
H           -7.97400000000000       -4.40300000000000        8.43800000000000
H           -5.38900000000000       -4.32100000000000        8.52100000000000
H           -4.22300000000000       -4.29900000000000        6.46700000000000
H           -6.98700000000000       -5.43500000000000        2.32000000000000
H           -5.55600000000000       -6.04100000000000        1.48400000000000
H           -6.37600000000000       -7.73400000000000        2.69100000000000
H           -4.78800000000000       -7.32200000000000        3.17300000000000
H           -6.29300000000000       -6.75800000000000        4.16400000000000
H           -4.05500000000000       -2.12200000000000        5.86600000000000
H           -2.66300000000000       -1.62000000000000        4.93800000000000
H           -5.84100000000000       -0.65500000000000        6.43500000000000
H           -6.11400000000000        0.75600000000000        5.38700000000000
H           -6.43500000000000       -0.97400000000000        4.84500000000000
H           -4.88600000000000        1.25300000000000        3.40600000000000
H           -3.59800000000000        0.30700000000000        2.73100000000000
H           -5.19000000000000       -0.45400000000000        2.75400000000000
H           -3.53000000000000        0.57900000000000        6.52600000000000
H           -3.98900000000000        1.76800000000000        5.38700000000000
H            0.40800000000000        0.59600000000000        5.05200000000000
H            0.27500000000000        3.38900000000000        4.30900000000000
H            0.22700000000000        3.31200000000000        1.69300000000000
H            1.97900000000000        2.24800000000000       -0.41400000000000
H            2.85900000000000        4.13500000000000       -1.50200000000000
H            1.02300000000000        6.32600000000000       -2.53300000000000
H            3.76500000000000        7.06100000000000       -3.05900000000000
H            4.02600000000000        5.50700000000000       -2.75700000000000
H            2.99200000000000        5.88600000000000       -4.15300000000000
H            3.44200000000000        6.65000000000000       -0.61700000000000
H            2.11600000000000        7.74900000000000       -0.82900000000000
H            1.78300000000000        6.32000000000000        0.04900000000000
H            2.77700000000000        0.34600000000000       -4.37400000000000
H            1.21900000000000        0.80600000000000       -4.98600000000000
H            2.11100000000000        0.77500000000000       -7.25600000000000
H            2.41700000000000       -0.81200000000000       -6.47100000000000
H            9.25000000000000        0.87400000000000      -11.25400000000000
H           10.41900000000000        0.84100000000000       -9.93100000000000
H            9.89200000000000       -0.65100000000000      -10.51700000000000
H            7.01200000000000        2.20900000000000       -8.61300000000000
H            8.61200000000000        2.73900000000000       -9.12100000000000
H            7.28100000000000        2.14700000000000      -10.21600000000000
H           10.50500000000000        1.11600000000000       -7.78400000000000
H            9.12000000000000        1.87800000000000       -7.05600000000000
H            9.84900000000000        0.69100000000000       -6.09400000000000
H            9.13400000000000       -1.93700000000000       -9.11300000000000
H           10.48800000000000       -1.42400000000000       -8.00100000000000
H            8.84900000000000       -2.20700000000000       -7.63500000000000
H            5.51100000000000        2.01700000000000       -7.23300000000000
H            3.80100000000000        2.22100000000000       -7.72500000000000
H            4.51500000000000        3.67200000000000       -5.70300000000000
H            4.96800000000000        2.33200000000000       -4.91200000000000
H           -0.48000000000000        3.62400000000000       -2.89000000000000
H            0.06700000000000        4.06400000000000       -4.62900000000000
H            0.07300000000000        2.42300000000000       -3.82900000000000
H            0.08800000000000        0.83900000000000        2.55700000000000
H           -0.68400000000000        1.28500000000000        1.03100000000000
H            1.92600000000000       -0.05400000000000        1.22600000000000
H            0.44800000000000       -1.56700000000000        2.33200000000000
H            1.23200000000000       -2.28300000000000        1.09700000000000
H            0.09400000000000       -2.68400000000000       -1.39700000000000
H           -1.66400000000000       -2.03800000000000       -1.33500000000000
H           -1.05400000000000        0.11600000000000       -1.15500000000000
H            0.05300000000000       -0.56800000000000       -2.41700000000000
H            3.94700000000000        2.05900000000000        4.46900000000000
H            3.30400000000000        3.60100000000000        4.84400000000000
H            3.17100000000000        1.86800000000000        6.92800000000000
H            2.33600000000000        0.75700000000000        5.91500000000000
H            1.03900000000000        3.21200000000000        6.61400000000000
H            0.91300000000000        1.65700000000000        7.40700000000000
H           -3.45200000000000       -5.87600000000000        0.72000000000000
H           -1.41400000000000       -4.49000000000000       -0.08300000000000
H           -2.30400000000000       -1.22800000000000        2.34200000000000
151
 energy: -221.091480989302 gnorm: 0.182566545086 xtb: 6.7.1 (edcfbbe)
C           -9.20746116678364       -2.32158719278425        4.62360326279182
N           -8.08727165553589       -4.41470397839269        6.37532844415978
O           -8.80571185315327       -4.35319641878107        3.11321248817545
C           -8.23887187667665       -3.43333018044997        4.11168184903520
N           -5.02358737188767       -4.65230515199548        2.94395294739178
O           -2.13964987956160        0.91618924036195        5.01973767404751
C           -9.86778720054243       -5.21491688890967        3.57014608319670
N            0.57059106173011        2.44513003663532        4.10742927028662
O            4.59766637377338       -1.58052100849678       -5.77159679344488
C           -7.41512772058636       -4.04960136081119        5.24747485903453
N            1.93603079769690        2.41942728900807        3.71083805371733
O            3.36438963008896        2.30020708942503       -2.76807908484191
C           -7.40101765493923       -4.39818278993820        7.51575539210842
N            1.20809464688214        2.81146030352149       -0.07188958703006
O           -0.11577150276383        4.58170979405643       -0.59562323012433
C           -6.01351467019410       -4.34963306434443        7.61875098206058
N            1.62135538579067        3.65639907308457       -3.17222485903331
O            0.94641612988209       -0.05628989782034       -0.64833628355325
C           -5.31228448711907       -4.29232231059390        6.42733321777842
N            4.17103991490793        0.42154482180104       -6.75766504426193
O            3.29638979974157        2.44575832965726        1.86377285805225
C           -6.00297322030007       -4.01859632986864        5.22952239941678
N            8.44990986604045        0.60085315033827       -9.31888642873642
O           -1.56476204576416        2.75464817192186        6.28700919822381
C           -5.17489936301322       -3.76669737126741        4.04078591433518
N           -0.69777649636085       -2.13792130612351        0.50730322551126
C           -5.91029111149573       -5.68114504049663        2.43475402807387
C           -5.82277992212631       -6.96385811464782        3.21205554647404
C           -4.23682275651543       -2.75312197884022        3.89797388514234
C           -3.76770070501915       -1.69910213885247        4.90499632055077
C           -4.35855030830389       -0.27603636301224        4.75312373015005
C           -5.77635889751191       -0.28261128737687        5.39934314291341
C           -4.52764946913334        0.22071044124014        3.30620347756551
C           -3.49726844189077        0.79617866363521        5.47446025425418
C           -1.26457448361809        1.78388603967525        5.59840192904094
C            0.20815322284865        1.63621723214390        5.29369891103901
C            2.17593814193604        2.57378140630149        2.35998289648044
C            0.93972845189078        2.54482405879218        1.38598892819523
C            0.94802011355693        3.98168130551841       -0.75271859445498
C            1.89352315455576        4.41023310529272       -1.90143554478060
C            2.00445976305946        5.95191970578890       -2.13991369460879
C            3.20648748830756        6.12802078598609       -3.10138124900244
C            2.35589817350400        6.68616272928959       -0.81050049731084
C            2.63970118290636        2.84305175707824       -3.61269874819421
C            2.80557726598720        2.40832156760800       -5.11469891882463
C            2.31250341021113        0.93885792773727       -5.16655182303456
C            2.72351968246483        0.25113146947275       -6.50929162146924
C            5.04581444012947       -0.58296165916762       -6.34921486866820
C            6.41352002450744       -0.51179740070807       -6.80547179610117
C            7.48257432862995       -0.34362297897741       -7.34179073564722
C            8.75357433356641       -0.04583064707458       -7.99591643921924
C            9.52420586946584        0.39378191553960      -10.30785954901777
C            7.85257708381343        1.96353381968313       -9.30132463517156
C            9.62603949348247        0.92587372598715       -7.15471943572769
C            9.39762523469239       -1.44972151296378       -8.18395718055806
C            4.47242674303822        1.82873190571260       -6.94267290947675
C            4.23473660723847        2.60375788412481       -5.62620689334153
C            0.24914372985608        3.48992409359178       -3.69394305148197
C            0.25422503056437        1.13005776931741        1.49798349156547
C            0.91625448642891       -0.11736738047231        0.81065785073400
C            0.44340524662770       -1.54574898048212        1.23884339358849
C           -0.63033654467447       -1.97979077051186       -0.95488513932127
C           -0.22418838502111       -0.56811478784524       -1.33883563934289
C            2.99473551464138        2.53828989660318        4.74968302294300
C            2.50673890325158        1.81071998038850        6.05045796992154
C            1.09666437091410        2.14415186501305        6.44966952225947
C           -3.47223464268351       -3.01737407221100        2.70922882058386
C           -3.84509683499029       -4.31038774950024        2.25872352134476
C           -3.18073620605787       -4.89022844943239        1.14461370551883
C           -2.07694801761370       -4.17478075856201        0.69765257870642
C           -1.75902578458541       -2.87295167985487        1.07441845888775
C           -2.48646852602400       -2.25530081234493        2.06257305067769
F            2.11515920884544        3.32117384330884       -5.87107409988194
H           -9.15486306285965       -2.19194934324162        5.70531910854593
H           -8.93583764098040       -1.42983717765612        4.05805507146852
H          -10.25021761080921       -2.47590509628651        4.34873516057149
H           -7.52648161060127       -2.86810297843783        3.50252049311163
H          -10.28817470481787       -5.83075583363084        2.76761355368225
H           -9.45638790989977       -5.95366914839248        4.26083957279909
H          -10.64138960795822       -4.57330059703079        3.99203736615688
H           -7.98121394453354       -4.41768789147417        8.43252576633277
H           -5.41441844152838       -4.32891665290624        8.52235548003769
H           -4.22845862298291       -4.30674131225161        6.45273531633678
H           -6.96797280039527       -5.40796925861315        2.33058348405561
H           -5.55289290873982       -6.00277842306361        1.45531091398465
H           -6.38950963041912       -7.73819008746603        2.69569811433161
H           -4.79170087331157       -7.31782206096575        3.20461734123905
H           -6.27329271179446       -6.78394446341105        4.18471761046374
H           -4.05774841029175       -2.10742700955436        5.87573346539366
H           -2.67447509376159       -1.62788240867280        4.91681004238377
H           -5.81870636889871       -0.64720888313810        6.42883658273405
H           -6.13199231458371        0.74661284484844        5.38549397627527
H           -6.42819377631142       -0.95583040882768        4.83983245991155
H           -4.90245476177301        1.24215010992081        3.38846566764793
H           -3.59532434651055        0.29782845396045        2.74580541674081
H           -5.19237066336201       -0.44177175173003        2.75485230532949
H           -3.51609687114044        0.57540048727908        6.54292445643233
H           -3.98892150743524        1.77213691438348        5.37958884337968
H            0.41918884033925        0.58971688043832        5.05092712876114
H            0.27396566090515        3.39838527166143        4.30781176840775
H            0.21694750360465        3.30536164540625        1.69350296108032
H            1.98867579501850        2.25246437377260       -0.40915552876260
H            2.87424430275138        4.11733766842332       -1.52030203151166
H            1.04779567416442        6.32375710283183       -2.53142340040247
H            3.72601529925131        7.08821287024970       -3.06217976864327
H            4.01764506221803        5.47901676540477       -2.76071380758732
H            2.98417892212817        5.88803804045339       -4.14170500262144
H            3.42890259903806        6.63379490087662       -0.61534158794981
H            2.11240030270408        7.74904442306155       -0.84846400675054
H            1.78920261496222        6.30730249062160        0.04110559814617
H            2.78773995601978        0.36567092328643       -4.36648296383949
H            1.23401353671308        0.82415868869544       -5.00244675386753
H            2.13427772317196        0.76743021705173       -7.27261620743136
H            2.43526454127419       -0.80303407493566       -6.47241730965864
H            9.24416914239820        0.87187313560565      -11.24712914598541
H           10.44077798858058        0.86470506873742       -9.93832616051643
H            9.84571442700573       -0.63653010808022      -10.50799666281919
H            7.03981613420368        2.16411442232585       -8.59106693402903
H            8.61138224861610        2.73789348102405       -9.13403625479215
H            7.31087040202203        2.13931447380997      -10.23544466579860
H           10.51315225069776        1.10957412788077       -7.76295572950358
H            9.11045780991064        1.88268414210172       -7.06174684148972
H            9.85229611742345        0.66241827083671       -6.11829008352851
H            9.15103380335205       -1.90764461906452       -9.14388988817593
H           10.47150182788353       -1.42973056445342       -8.00356971949761
H            8.86851645716253       -2.19476216461539       -7.58256904871966
H            5.51007233884641        2.00057520627892       -7.23686342367408
H            3.80633426590715        2.21790365323298       -7.72091346011249
H            4.48662980661072        3.66885610101777       -5.72260549127671
H            4.97560396062559        2.29762716024964       -4.88999566616372
H           -0.46940121480660        3.66514084370898       -2.89031465479871
H            0.06999728391687        4.06083760162220       -4.60767514092566
H            0.08482142220145        2.41968860013163       -3.85238963787906
H            0.09231950832062        0.85210896604554        2.54375001067482
H           -0.71089934437580        1.28477405699831        1.02799199193786
H            1.94336161361042       -0.06137562734318        1.19136679445292
H            0.39883948051871       -1.56288945936480        2.33254324890487
H            1.25670999540310       -2.26671590834357        1.07120432637252
H            0.08385330006391       -2.68722210005432       -1.39409090894362
H           -1.65276928146585       -2.06586122318264       -1.33605134989439
H           -1.05326889991575        0.12153991468448       -1.15488607500803
H            0.05465524904088       -0.55810828234052       -2.39981211355678
H            3.92816174799676        2.04902615358517        4.44930433386413
H            3.28039693548046        3.59356383291802        4.86517223328534
H            3.18123542872258        1.89240413435331        6.90656507841545
H            2.38412458837993        0.73892058172953        5.88494546196056
H            1.01168287915427        3.21984104831094        6.60985856471993
H            0.89647074439772        1.65566268404939        7.40499964191071
H           -3.44626077661973       -5.85921481512974        0.73181868055040
H           -1.42175568518180       -4.51699396885104       -0.09313788699031
H           -2.30528119966271       -1.23273741208559        2.35236774004353
151
 energy: -221.178968187213 gnorm: 0.090927679529 xtb: 6.7.1 (edcfbbe)
C           -9.20699471451674       -2.33311721222635        4.60755472032682
N           -8.06860550030864       -4.35542860513118        6.37624419385258
O           -8.80438081279875       -4.35271767739031        3.13524105432328
C           -8.23629803807874       -3.43977429351732        4.10139391089521
N           -5.01266666980664       -4.65102856217793        2.93657163817506
O           -2.11166021169652        0.90270485988838        5.04979515064429
C           -9.85346254732811       -5.20836996283411        3.58347707562418
N            0.56064893084718        2.45479563699041        4.09675179759454
O            4.60039658366126       -1.57951046584639       -5.78515582098260
C           -7.41480460475798       -4.04295472589040        5.25133963237092
N            1.92087478645010        2.41636087750913        3.69158703897905
O            3.40772224477940        2.31857626636269       -2.78018794433517
C           -7.39690238299711       -4.40631304285595        7.51794289112652
N            1.25308855952928        2.83462994036582       -0.03493936848982
O           -0.11326038077616        4.58086391150749       -0.56020980176950
C           -6.01297968606258       -4.34648443552785        7.60084122266012
N            1.63580198402116        3.66052822812307       -3.16590008044749
O            0.95274712523234       -0.05760606757219       -0.63317828938629
C           -5.31664307594035       -4.27143033315723        6.40956095871304
N            4.15777253871012        0.42165315709179       -6.74711812980754
O            3.30368353869413        2.46882815766317        1.88318805160469
C           -6.00544998670281       -4.03690286256030        5.20547895824866
N            8.43027772813190        0.57469405851274       -9.32249206967409
O           -1.61714070515736        2.73626349026588        6.28433914423507
C           -5.15882290287494       -3.76529235696714        4.01610408465782
N           -0.70115334884948       -2.10564871577632        0.50865308787357
C           -5.89480160600228       -5.68843125364082        2.42943837684252
C           -5.82812346627219       -6.97959842496810        3.22203399645456
C           -4.22283415508898       -2.75028592384235        3.90516023651481
C           -3.78040275288216       -1.70377691810785        4.90301364733805
C           -4.35603412184479       -0.27289984330718        4.75356272048754
C           -5.76294297264327       -0.27342643517186        5.39539275387941
C           -4.52381911461316        0.21844503894649        3.31069484625417
C           -3.49362591167080        0.79907903438274        5.49066037486053
C           -1.27907662368758        1.80433512927170        5.59006143858989
C            0.21501094433459        1.64188425487848        5.27911085906587
C            2.16081166826668        2.52102020297510        2.34424153172725
C            0.92838762773280        2.51154664189665        1.37665818328898
C            0.92979851428813        3.96671625199392       -0.74885593512511
C            1.88950914187304        4.38412198724027       -1.88940724912324
C            2.01868572366467        5.93107400609965       -2.12980474112559
C            3.21117721462871        6.12066809670808       -3.09347719078102
C            2.35015488775136        6.68006458982848       -0.81833581455327
C            2.63481780925686        2.82712633954383       -3.58939532740800
C            2.80167094911484        2.41595709107916       -5.08007831426529
C            2.32776519660370        0.93828189085606       -5.17494395528410
C            2.72623802716898        0.26763431344631       -6.49383291983715
C            5.01997050488968       -0.57219450895474       -6.35205408893126
C            6.38467531839542       -0.46553739626678       -6.81814706434839
C            7.46003749479156       -0.30018184550156       -7.34062665960333
C            8.74080285998531       -0.04532268148681       -8.00424344835315
C            9.52607174205403        0.42547498616741      -10.29257917145431
C            7.86668967142033        1.93964951265648       -9.30961082860802
C            9.61463939682024        0.92870072501441       -7.16532052971675
C            9.38210611159072       -1.45106376256805       -8.18502368816944
C            4.47282753153377        1.82817771949182       -6.92646800965458
C            4.24487228273436        2.59146167618996       -5.60358906976783
C            0.27007351865584        3.48216759705609       -3.67889738639124
C            0.22308667491628        1.11130131541928        1.47313905213274
C            0.91414251318675       -0.12242685480752        0.80172582368989
C            0.43911041095157       -1.55225147328214        1.23436948312937
C           -0.62533379833700       -1.97208777315256       -0.93248865254665
C           -0.20662783923079       -0.55069643577594       -1.31576161729906
C            2.97378458555264        2.51763214678817        4.74474560224458
C            2.50995871749806        1.79663106731902        6.03269771911139
C            1.09043114375074        2.14509212221659        6.44902281420260
C           -3.46633987389415       -3.01625841098923        2.72680749084757
C           -3.87930596626582       -4.27727233384669        2.22655676765454
C           -3.17657592337389       -4.86098635494865        1.16007777309029
C           -2.08002975599372       -4.15996145429910        0.67430566771620
C           -1.74570262918619       -2.85027923365094        1.09156814042393
C           -2.48362692316671       -2.26335066336113        2.09757867081391
F            2.06467431787234        3.29129904029573       -5.87865950535398
H           -9.14638471256293       -2.19560273926310        5.68607497284965
H           -8.93581524686972       -1.41783620258568        4.08370247894705
H          -10.24786251496800       -2.50757512828166        4.35083227739491
H           -7.50975018858643       -2.89661791968361        3.48583476913147
H          -10.26235125295998       -5.79029267493408        2.74905061898195
H           -9.46148541472999       -5.94024742499350        4.29114057802998