151
 energy: -220.776064508520 gnorm: 0.451700128790 xtb: 6.7.1 (edcfbbe)
C           -7.51700000000000       -2.35700000000000        1.74700000000000
N           -8.38700000000000       -3.08900000000000        4.53300000000000
O           -7.99900000000000       -4.86000000000000        1.95100000000000
C           -7.18700000000000       -3.67800000000000        2.43000000000000
N           -4.08400000000000       -4.49100000000000        3.38100000000000
O           -2.57000000000000        1.66500000000000        4.22000000000000
C           -8.07000000000000       -5.06200000000000        0.45600000000000
N            0.06900000000000        3.33400000000000        4.12200000000000
O            3.65300000000000       -1.96000000000000       -7.99100000000000
C           -7.22000000000000       -3.39300000000000        3.91700000000000
N            1.50200000000000        3.46100000000000        4.12000000000000
O            3.25400000000000        0.68700000000000       -2.49400000000000
C           -8.51300000000000       -3.06600000000000        5.90300000000000
N            1.97800000000000        2.49200000000000        0.52400000000000
O            2.41100000000000        4.65800000000000        0.07100000000000
C           -7.32700000000000       -3.37700000000000        6.59900000000000
N            1.66900000000000        2.31800000000000       -2.45900000000000
O            2.73900000000000       -0.20100000000000        0.80200000000000
C           -6.05900000000000       -3.32900000000000        6.12100000000000
N            3.09700000000000       -0.59300000000000       -6.31600000000000
O            3.38600000000000        3.00200000000000        2.89400000000000
C           -6.04800000000000       -3.35100000000000        4.68900000000000
N            7.27800000000000        1.96100000000000       -8.86800000000000
O           -2.24800000000000        2.32300000000000        6.35300000000000
C           -4.65400000000000       -3.42800000000000        4.18100000000000
N            0.44200000000000       -1.68400000000000        1.56200000000000
C           -4.37300000000000       -5.94100000000000        3.34900000000000
C           -5.81400000000000       -6.37400000000000        3.87900000000000
C           -3.73300000000000       -2.37100000000000        4.16800000000000
C           -3.62600000000000       -0.92700000000000        4.67300000000000
C           -4.52800000000000        0.11700000000000        3.95600000000000
C           -5.90900000000000       -0.06300000000000        4.46600000000000
C           -4.39700000000000        0.06300000000000        2.34800000000000
C           -3.96400000000000        1.44600000000000        4.52800000000000
C           -1.77800000000000        2.08700000000000        5.22700000000000
C           -0.37500000000000        2.27800000000000        5.09000000000000
C            2.20000000000000        3.10800000000000        3.00600000000000
C            1.23000000000000        2.65400000000000        1.88800000000000
C            2.31200000000000        3.50900000000000       -0.31300000000000
C            2.64700000000000        3.31700000000000       -1.74400000000000
C            2.92300000000000        4.61400000000000       -2.59700000000000
C            1.69600000000000        5.45200000000000       -3.01000000000000
C            3.65300000000000        4.30600000000000       -3.97700000000000
C            2.13300000000000        1.02200000000000       -2.79200000000000
C            1.52100000000000        0.23800000000000       -3.96500000000000
C            2.25700000000000       -1.19500000000000       -4.18300000000000
C            2.21100000000000       -1.48700000000000       -5.68700000000000
C            3.93100000000000       -0.86100000000000       -7.37100000000000
C            5.38200000000000       -0.34100000000000       -7.29300000000000
C            6.44300000000000        0.26700000000000       -7.40200000000000
C            7.64100000000000        1.03900000000000       -7.69800000000000
C            6.25100000000000        3.05300000000000       -8.66700000000000
C            8.29800000000000        2.26900000000000       -9.78200000000000
C            7.89300000000000        1.83400000000000       -6.28100000000000
C            8.81000000000000        0.04900000000000       -8.01500000000000
C            3.02800000000000        0.98100000000000       -5.84700000000000
C            1.68700000000000        1.14600000000000       -5.20600000000000
C            0.25900000000000        2.65600000000000       -2.38300000000000
C            0.75700000000000        1.10100000000000        1.94500000000000
C            1.97600000000000        0.06800000000000        2.04600000000000
C            1.39300000000000       -1.24700000000000        2.63100000000000
C            0.95000000000000       -1.75200000000000        0.11300000000000
C            2.58000000000000       -1.55100000000000        0.22400000000000
C            2.20800000000000        3.59600000000000        5.53400000000000
C            1.89700000000000        2.29600000000000        6.24400000000000
C            0.37000000000000        2.33700000000000        6.31300000000000
C           -2.86200000000000       -2.80900000000000        3.05500000000000
C           -2.85200000000000       -4.11000000000000        2.86800000000000
C           -1.81900000000000       -4.72800000000000        2.09900000000000
C           -0.69400000000000       -4.04600000000000        1.80300000000000
C           -0.64700000000000       -2.63200000000000        1.90800000000000
C           -1.85100000000000       -2.03000000000000        2.37500000000000
F            0.10100000000000        0.25500000000000       -3.91600000000000
H           -8.53600000000000       -2.07500000000000        2.03000000000000
H           -6.85100000000000       -1.54500000000000        2.05300000000000
H           -7.14800000000000       -2.36700000000000        0.71800000000000
H           -6.16500000000000       -3.89200000000000        2.10200000000000
H           -8.90100000000000       -4.47000000000000        0.06500000000000
H           -7.11600000000000       -4.87100000000000       -0.04500000000000
H           -8.22700000000000       -6.10300000000000        0.15800000000000
H           -9.43100000000000       -2.66600000000000        6.32300000000000
H           -7.42300000000000       -3.43100000000000        7.67900000000000
H           -5.26400000000000       -3.21600000000000        6.85200000000000
H           -4.12300000000000       -6.29300000000000        2.34400000000000
H           -3.51900000000000       -6.42400000000000        3.83100000000000
H           -5.67100000000000       -7.44900000000000        4.02700000000000
H           -6.15700000000000       -5.93000000000000        4.81800000000000
H           -6.73900000000000       -6.25900000000000        3.30700000000000
H           -3.88700000000000       -1.00800000000000        5.73200000000000
H           -2.57500000000000       -0.63700000000000        4.75900000000000
H           -6.39700000000000       -0.96100000000000        4.07600000000000
H           -6.03100000000000       -0.02400000000000        5.55300000000000
H           -6.43900000000000        0.86100000000000        4.21500000000000
H           -4.27500000000000       -0.95800000000000        1.97500000000000
H           -5.31400000000000        0.42900000000000        1.87700000000000
H           -3.44200000000000        0.50700000000000        2.05100000000000
H           -4.23000000000000        1.36500000000000        5.58700000000000
H           -4.44400000000000        2.41800000000000        4.38700000000000
H           -0.01800000000000        1.38000000000000        4.57700000000000
H           -0.38200000000000        4.18500000000000        4.45300000000000
H            0.35300000000000        3.26900000000000        1.66700000000000
H            2.35200000000000        1.55200000000000        0.40500000000000
H            3.60400000000000        2.82000000000000       -1.56400000000000
H            3.61100000000000        5.30400000000000       -2.10000000000000
H            1.93700000000000        6.44700000000000       -3.39500000000000
H            1.22000000000000        4.78600000000000       -3.73500000000000
H            1.19900000000000        5.52800000000000       -2.03800000000000
H            3.53300000000000        5.26800000000000       -4.48400000000000
H            4.65100000000000        3.87200000000000       -3.86700000000000
H            2.93000000000000        3.71000000000000       -4.54100000000000
H            3.31200000000000       -1.32000000000000       -3.92200000000000
H            1.70000000000000       -1.96600000000000       -3.64300000000000
H            1.22600000000000       -1.46400000000000       -6.16200000000000
H            2.57600000000000       -2.47400000000000       -5.98500000000000
H            5.79200000000000        3.20500000000000       -9.64800000000000
H            5.43600000000000        2.68500000000000       -8.03700000000000
H            6.67700000000000        3.95400000000000       -8.21400000000000
H            7.80800000000000        2.72700000000000      -10.64600000000000
H            8.98900000000000        2.91100000000000       -9.22900000000000
H            8.83700000000000        1.46700000000000      -10.29500000000000
H            7.25300000000000        1.70900000000000       -5.40200000000000
H            8.84800000000000        1.52900000000000       -5.84400000000000
H            8.10700000000000        2.88800000000000       -6.48000000000000
H            8.94700000000000       -0.79700000000000       -7.33500000000000
H            8.60200000000000       -0.47600000000000       -8.95200000000000
H            9.82900000000000        0.44400000000000       -8.06500000000000
H            3.77500000000000        1.21200000000000       -5.08300000000000
H            3.10300000000000        1.65100000000000       -6.70800000000000
H            0.83800000000000        0.72800000000000       -5.75500000000000
H            1.37900000000000        2.19500000000000       -5.16700000000000
H           -0.41600000000000        2.05300000000000       -1.76900000000000
H            0.20900000000000        3.74900000000000       -2.37900000000000
H           -0.25200000000000        2.45400000000000       -3.32900000000000
H           -0.00300000000000        1.07000000000000        2.73100000000000
H            0.14800000000000        0.70600000000000        1.12600000000000
H            2.59900000000000        0.42100000000000        2.87300000000000
H            1.05400000000000       -0.99500000000000        3.64000000000000
H            2.20000000000000       -1.98300000000000        2.68600000000000
H            0.59500000000000       -2.64500000000000       -0.40800000000000
H            0.69500000000000       -0.91400000000000       -0.54300000000000
H            2.99500000000000       -1.45400000000000       -0.78300000000000
H            3.09400000000000       -2.26500000000000        0.87500000000000
H            3.28700000000000        3.75700000000000        5.60500000000000
H            1.78200000000000        4.47100000000000        6.03500000000000
H            2.35000000000000        2.01000000000000        7.19700000000000
H            2.15200000000000        1.46200000000000        5.58200000000000
H            0.15700000000000        3.27700000000000        6.83000000000000
H           -0.03400000000000        1.58200000000000        6.99300000000000
H           -1.62300000000000       -5.77800000000000        1.90600000000000
H            0.07500000000000       -4.63000000000000        1.30600000000000
H           -1.79500000000000       -0.95200000000000        2.49600000000000
151
 energy: -220.983926222962 gnorm: 0.263598954131 xtb: 6.7.1 (edcfbbe)
C           -7.51109921114614       -2.34816734404073        1.74328561448847
N           -8.38258023737661       -3.10071006226305        4.53023380324104
O           -7.98912059563848       -4.84034849332218        1.93944801565115
C           -7.18143933804896       -3.67471938769357        2.42254312828217
N           -4.09097535753345       -4.50240172925581        3.38056722156541
O           -2.57095491689535        1.66309600246775        4.23810858199957
C           -8.06245054821068       -5.05327153090337        0.47095419808024
N            0.08539263693908        3.34027328798586        4.13088710510683
O            3.66965841974027       -1.93056805518820       -7.99372769816555
C           -7.21639571035900       -3.41750176387242        3.93217305732150
N            1.50840303184721        3.46043613543180        4.13270199232646
O            3.27131524092408        0.69149651946503       -2.47409460057963
C           -8.48900060668720       -3.06106624928307        5.87575899023275
N            1.97464346330749        2.50558833756312        0.51510395027225
O            2.39396812572356        4.68448570999490        0.09434162527979
C           -7.34323345205354       -3.34792470688604        6.62366507808196
N            1.67714197617094        2.31312555176587       -2.45064060249255
O            2.71654407602207       -0.19866207721056        0.82526295430586
C           -6.07621593899993       -3.32439676472689        6.10848339593364
N            3.11802218716182       -0.54401812781876       -6.31952254789990
O            3.38289103647948        3.01031126601927        2.89786555465801
C           -6.02195530077724       -3.38224098989705        4.69167428382697
N            7.26391274448290        1.92972465265535       -8.84473303152958
O           -2.26570643261738        2.32069926078399        6.35377711980557
C           -4.64027671538177       -3.42996859051973        4.15099763852134
N            0.41891391213884       -1.69791493494835        1.54970970106094
C           -4.38947198354153       -5.93706140071279        3.35544237132616
C           -5.79878464494846       -6.38628583446973        3.88212226559415
C           -3.74318460332121       -2.36143699541698        4.11190056839514
C           -3.63409217036991       -0.95306653199458        4.67450739868642
C           -4.50353404482776        0.11510420325011        3.95330992834714
C           -5.91734913934940       -0.04404021939730        4.45973162120350
C           -4.39505679779976        0.05187443473133        2.37010452014402
C           -3.96751948958169        1.45156763958093        4.53632412031197
C           -1.80118670698882        2.10323667949959        5.23765446278397
C           -0.35162143751266        2.26098429620912        5.06228684132706
C            2.17732296643002        3.07846709318456        3.00687957163571
C            1.24415842987747        2.61839682371009        1.84487026988563
C            2.30394306473462        3.52891470295704       -0.30436343864992
C            2.64247662408315        3.29706228939917       -1.75836899127292
C            2.93668153378681        4.60149923334978       -2.60609495254714
C            1.70102452998629        5.43212310361949       -2.99089064292064
C            3.63249714469093        4.30603231417406       -3.96995868517522
C            2.15181496312263        1.05118242394366       -2.79939785827465
C            1.52660959411755        0.25563597706611       -3.95635538270424
C            2.22486161666986       -1.17845331210975       -4.19715250009594
C            2.21219827682146       -1.47065102170473       -5.70345452760874
C            3.96639825200668       -0.89914565249098       -7.32594558717318
C            5.35660889469645       -0.32436506510378       -7.31297301666382
C            6.41379645728928        0.26127734051383       -7.42067932215489
C            7.63191086356690        1.04090700509263       -7.67176569891329
C            6.26240959892400        3.02423578225305       -8.66249415787480
C            8.29402530250712        2.27346765646319       -9.77613289857370
C            7.92211525154016        1.83363713007504       -6.28991676403954
C            8.80067441348243        0.05129866032977       -8.01724528813031
C            3.02481193239203        0.95655761158080       -5.85285428210940
C            1.67678744416327        1.13030028568553       -5.22033797957676
C            0.25841780557025        2.65311045392197       -2.40994133167189
C            0.76457501084151        1.10082945227898        1.94765878050047
C            1.96192569686089        0.06638389522246        2.06037065317404
C            1.38485138923207       -1.25539842795526        2.59432003012316
C            0.97536687621934       -1.75219358823495        0.14373570554822
C            2.55318717064241       -1.52948768364552        0.23385651635388
C            2.20502340163133        3.59197887923235        5.52170094911193
C            1.88009147970042        2.28591890923160        6.22908577162045
C            0.36305574884354        2.33803655622454        6.35334772883002
C           -2.80890527859734       -2.76948296165862        3.07286753205214
C           -2.86626003613022       -4.11688135679807        2.84959981274660
C           -1.82073566246928       -4.73951906068022        2.11698568988559
C           -0.69636744524445       -4.02886836020122        1.78287641526851
C           -0.65455767468204       -2.61813298493780        1.90207871231204
C           -1.80728666474384       -2.01639822858019        2.41523625290890
F            0.11084929244299        0.21188243304724       -3.88555430405683
H           -8.53288654820140       -2.07497193268975        2.00498237016293
H           -6.84978293400036       -1.54790277445320        2.08206807674537
H           -7.18584145941697       -2.37811637418038        0.70283115874660
H           -6.15668371983817       -3.90272062234050        2.11307343246943
H           -8.89000836034853       -4.46520714959211        0.06969064378505
H           -7.11434329958740       -4.84931364069336       -0.03223870743641
H           -8.23649820969358       -6.10111899300467        0.19565413919476
H           -9.41786520812631       -2.68801357026022        6.30450126973743
H           -7.43561750286032       -3.42992152083587        7.69574328005742
H           -5.26355467565830       -3.22945466885009        6.82328390890395
H           -4.15963790714981       -6.28261541861273        2.33615399294524
H           -3.54354540460221       -6.42547988109847        3.86420239686624
H           -5.67820633575376       -7.45638406594772        4.03359206944198
H           -6.12438854330107       -5.93036566255659        4.82105776866272
H           -6.70604960017304       -6.25050091795023        3.28036901428437
H           -3.90481952309668       -1.00557355266805        5.73366325893204
H           -2.58077703496319       -0.64928273431938        4.73367745210368
H           -6.39500922932152       -0.94619994740039        4.07719123381658
H           -6.01473537767609       -0.03843342064137        5.55101059828793
H           -6.45976507846320        0.86062693453678        4.19396480809983
H           -4.28367172405429       -0.96612674821645        1.99244093404002
H           -5.29651378314056        0.44212181647366        1.89018392784184
H           -3.46123267283205        0.52342067179945        2.05699169585430
H           -4.19785686704715        1.36038614763809        5.60420846477302
H           -4.45761168009041        2.41267498622292        4.34697602448146
H           -0.00984769243992        1.35385448542724        4.56229722362258
H           -0.36734291099307        4.19487281743042        4.45187152252723
H            0.37068162743006        3.26228645354115        1.67355581872118
H            2.34899859518713        1.56661954400773        0.38887344723120
H            3.60756252669882        2.80440947019018       -1.59450443628465
H            3.61066800429571        5.28455028465961       -2.07870275769623
H            1.93889499352023        6.42484541573108       -3.38716318461987
H            1.20001421605082        4.80935299786230       -3.73171007730900
H            1.17436959961022        5.53907098477630       -2.04570396379235
H            3.56484954752986        5.26538365974038       -4.48603125487123
H            4.63159821882909        3.88045348004738       -3.87209418821547
H            2.94346145374546        3.68881142146301       -4.54278498601713
H            3.28482361433389       -1.28320720899574       -3.91248690990616
H            1.68984618595859       -1.95644761231462       -3.64603733833057
H            1.21586313201751       -1.45372755554796       -6.15700343178425
H            2.58309252591915       -2.47134346116351       -5.97127047221594
H            5.80657780206589        3.20836641214885       -9.64122184844824
H            5.44528014569574        2.67741450850067       -8.02995964467692
H            6.67860474337703        3.94213086748763       -8.22454481093745
H            7.81117892125718        2.74667003479375      -10.63646847325893
H            9.00457837820405        2.92310821290721       -9.25221830792484
H            8.83220838728261        1.45670725208373      -10.26945537429225
H            7.23684014343815        1.70797708734110       -5.44050365041068
H            8.86554410984467        1.51303655842318       -5.85293081130461
H            8.09143312794461        2.89179957636189       -6.48547149070749
H            8.92367382490629       -0.78250758293984       -7.31822310746517
H            8.59658539978286       -0.46359409430652       -8.95840989926079
H            9.81205206737939        0.46554582061447       -8.06927291413058
H            3.77958460758475        1.19472334078463       -5.09659319694227
H            3.11253766802901        1.62922644867931       -6.70926644868996
H            0.84309640002214        0.72443804155222       -5.79291525796088
H            1.39418992269504        2.18745684016547       -5.14152181293192
H           -0.38853092754858        2.06816798817272       -1.74405658009851
H            0.19998021862457        3.73872490442335       -2.34688552747527
H           -0.24181455754682        2.44800505150295       -3.35777882873184
H            0.02175352613543        1.05605556954617        2.74819188809559
H            0.16106407047130        0.73687289091868        1.10937478644227
H            2.62120725888022        0.42943590137780        2.85612037930540
H            1.02854585141969       -1.01640852878009        3.60781767396525
H            2.19886764133474       -1.98457606962883        2.69231199966351
H            0.61681604209506       -2.64518482605103       -0.38470047582713
H            0.68173128565437       -0.91349746860454       -0.51142090588726
H            2.99031621040771       -1.45112617587628       -0.76809597263748
H            3.08073825541167       -2.25977356317856        0.86060953494706
H            3.28483799988693        3.75554894603249        5.56094416612849
H            1.77447841935403        4.46366983047983        6.02738204420189
H            2.34661251876051        2.03850767047984        7.18920468792821
H            2.15776875249254        1.45757194266289        5.57301386937944
H            0.14318714976685        3.28622598507016        6.84390184244718
H           -0.03462754828313        1.56824807973866        7.00771363129694
H           -1.65601203747431       -5.78857833580830        1.91551530809009
H            0.08576301043453       -4.61365567525897        1.31008803567610
H           -1.79223948406196       -0.94343607506946        2.49654585931187
151
 energy: -221.110379781865 gnorm: 0.122322515946 xtb: 6.7.1 (edcfbbe)
C           -7.50391567883314       -2.34232709151612        1.74165515391592
N           -8.37145210442099       -3.11986346847116        4.52310976615386
O           -7.97910573401304       -4.82082391623431        1.93310062653550
C           -7.17321009713565       -3.67606342850086        2.41232564013851
N           -4.08995233780326       -4.50557090698108        3.37971107079369
O           -2.56629760748943        1.66323395755849        4.25653325110386
C           -8.05299511581595       -5.03833563315767        0.49518920052780
N            0.10232450343331        3.34055900992866        4.14459239341083
O            3.70236000936949       -1.91044237254175       -7.97249559737189
C           -7.20816432549697       -3.43696814409497        3.94127586461162
N            1.51662478675189        3.45896445720119        4.13898433693188
O            3.28559532652934        0.69639448129466       -2.45834498879586
C           -8.46354382546801       -3.05890689254590        5.84542893345948
N            1.97049456809932        2.51876749235205        0.51114961735244
O            2.36742506641598        4.70725473916717        0.11158578638780
C           -7.35824206563338       -3.31885619430967        6.64785709274312
N            1.69161830719199        2.30697631448370       -2.43725389178234
O            2.69755398276356       -0.19313612348910        0.84208378825534
C           -6.09537263035267       -3.32782488917440        6.09160161088610
N            3.13112013163938       -0.48892834846665       -6.32358903490681
O            3.37759850928322        3.01764456345471        2.90614419503655
C           -5.99593615194820       -3.40888759806525        4.69348379115845
N            7.25431484889171        1.90448423517615       -8.82712285268956
O           -2.28128697245221        2.33077666465543        6.35747187999894
C           -4.62564600337982       -3.43239110273059        4.12138726506467
N            0.41049280738365       -1.71252576752263        1.53777244405219
C           -4.40240704974031       -5.92912148183208        3.35983166813499
C           -5.78110390558126       -6.39269119414385        3.88374006567048
C           -3.74946834454374       -2.35607959808460        4.05559240198394
C           -3.64661501661787       -0.97887188343724        4.66948265298786
C           -4.48945235679470        0.11505249372437        3.95097093569198
C           -5.92826635546741       -0.02669753530816        4.45520850872580
C           -4.39045357365833        0.04516387999410        2.39703164954476
C           -3.96788355068945        1.45258073588243        4.54157418559969
C           -1.82230868216996        2.11360219560234        5.25519332262875
C           -0.33215337478810        2.24713291487003        5.03728700005932
C            2.15804806560368        3.05570120754132        3.00258440198126
C            1.26053020953422        2.58056441422150        1.80380384576187
C            2.29693478865176        3.55012774307119       -0.29275546832271
C            2.63626029042704        3.27420137037316       -1.76917698589352
C            2.93875493044100        4.58704765785716       -2.61527412493202
C            1.70142455684403        5.41444543127789       -2.97188903502310
C            3.61227219800092        4.30497393883665       -3.95929982163427
C            2.17132739565576        1.08086210000682       -2.80731683724278
C            1.53223194075370        0.26849288168641       -3.95434436627286
C            2.19877773109313       -1.15624897413103       -4.20695119786858
C            2.21457701872407       -1.45217454843454       -5.71562248104142
C            3.98685129170363       -0.91837179174891       -7.29862885589134
C            5.31753335584998       -0.29783693944981       -7.32643091780765
C            6.39181110382025        0.25583285934169       -7.43777276163736
C            7.62520106255694        1.04711989136340       -7.65321628746600
C            6.27555751065460        2.99134023819311       -8.65474029515841
C            8.29182446595958        2.27764387694823       -9.77021017092707
C            7.94425102957367        1.82754243827041       -6.30549171341407
C            8.78767276353629        0.05289625836531       -8.01613179340689
C            3.02607266489477        0.91952040706472       -5.86390554167651
C            1.66770338054193        1.11476113275725       -5.23440816373612
C            0.26420890332739        2.64966550642280       -2.43624465160819
C            0.77699992726958        1.10104940288234        1.94198766788807
C            1.94596443881822        0.05888220359999        2.06657979699650
C            1.37107528891929       -1.26159291966878        2.56659524986550
C            0.99516854582249       -1.75112504190885        0.17127318818599
C            2.51800480905691       -1.50646202265908        0.25134953169025
C            2.19640049801330        3.58326750965745        5.49764610136826
C            1.86400641793477        2.27822328527331        6.21853253337050
C            0.35554591993011        2.33411735910386        6.38580057295565
C           -2.76129441545274       -2.74194728813239        3.08941261694633
C           -2.87783328004593       -4.11728728939102        2.83339155165567
C           -1.82154345393723       -4.74065574316867        2.13686693242859
C           -0.69947701184106       -4.01077910283330        1.76700958048086
C           -0.65294571212721       -2.60593384308777        1.89811540395095
C           -1.76621583294010       -2.00506425194355        2.45672162763304
F            0.12545712258112        0.16838973695185       -3.84657189094207
H           -8.53046600058969       -2.07523027642169        1.97661075523562
H           -6.84976180375854       -1.55373577079460        2.10886136889837
H           -7.22872091426582       -2.38739215264202        0.68979799026783
H           -6.14386047305363       -3.91236577880852        2.12356563447887
H           -8.87734997395802       -4.45724913300812        0.07416226571357
H           -7.11191576873678       -4.82490490312371       -0.01650251320941