151
Properties=species:S:1:pos:R:3:MACE_forces:R:3 energy:=T -221.332325571325=T gnorm:=T 0.003778277547=T xtb:=T 6.7.1=T (edcfbbe)=T MACE_energy=-90873.36844298853 pbc="F F F"
C       10.20235407      16.42973584      24.09621965       0.04415253      -0.20786516      -0.34691013
N       11.42916516      13.89939151      24.39099557      -0.27927483       0.15616656       0.08033866
O       10.11490170      15.08311512      22.04195622       0.02095720      -0.03625251       0.20958028
C       10.97343249      15.77015509      22.95213131       0.00004663       0.25621107       0.01540147
N       13.40291320      15.69171041      20.79251747      -0.11534316       0.09567204       0.28134906
O       16.78365885      19.34545413      23.88060114       0.02593806      -0.69964534      -0.04351434
C        9.32477832      15.91970555      21.22534939       0.14970460      -0.05045724       0.10998206
N       19.06955513      21.73522255      23.11206143      -0.32112109       0.20357646      -0.00482527
O       26.40894871      16.86090149      14.23630024      -0.57852250       0.50034897      -0.37203373
C       11.93346906      14.72134520      23.48251208       0.24773235       0.11303466      -0.30679471
N       20.44697386      21.98239334      23.13775921      -0.44785815       0.17694983       0.91925609
O       23.53069167      20.79725550      17.67630575      -0.36089295      -0.21603899      -0.34510512
C       12.18828860      12.94693024      24.90161913       0.09392129      -0.19622855       0.07258409
N       21.19756619      21.86205095      19.61685887       0.48746533      -0.25781659       0.46186213
O       19.51923528      22.80032874      18.43217576       0.05347860       0.07561747      -0.06224896
C       13.50806533      12.74915521      24.52666145      -0.01696524       0.05598659      -0.03767748
N       21.73713604      21.58448016      16.57626293      -0.32007634       0.37206387      -0.00173499
O       19.56283518      19.48449160      18.48802522       0.04110864       0.10111203       0.08662006
C       14.04394338      13.60123892      23.57891158      -0.13247951       0.00347680      -0.00258878
N       24.29416749      17.68394754      14.17498601      -0.43734035       0.00945335       0.08895474
O       22.40299838      22.01450892      22.02286176      -0.50154763      -0.14027013      -0.00853708
C       13.26062217      14.61944135      23.03481455      -0.11404245      -0.29837758       0.23591284
N       27.84635053      19.66652946      10.07291800       0.01941959      -0.03925877       0.08774591
O       16.45108772      21.52324343      24.30354771       0.40004903      -0.33927488      -0.12163694
C       13.86501918      15.55609989      22.08257315       0.21196606       0.23819658       0.18079097
N       16.75199882      19.72568486      18.99243798      -0.07977164       0.21343458      -0.06939896
C       12.57551139      14.73759818      20.09691882      -0.09126155      -0.52667976      -0.20883988
C       13.41624934      13.60416259      19.50946426      -0.11720123       0.19721296       0.04192127
C       14.90362549      16.43364295      22.31417973      -0.11302264      -0.31737182       0.10897993
C       15.69399387      16.57361332      23.57700636      -0.15104608       0.10399030       0.07250070
C       15.19141430      17.64112474      24.57518662       0.21251939       0.18188068       0.01264279
C       15.98685307      17.50446172      25.87644881      -0.02492181       0.07164655      -0.24275175
C       13.70295477      17.45574819      24.86215346       0.23347099       0.08766601      -0.12532950
C       15.38290304      19.05099197      24.00178092      -0.66519427      -0.03221288       0.18829080
C       17.18264297      20.58150181      24.08757798      -0.06277361       0.98759700       0.01522024
C       18.69878213      20.68964051      24.06548554      -0.07659380      -0.07849788       0.31455911
C       21.18915071      21.84548030      22.02854517       0.75246348       0.12483443      -0.93178309
C       20.41434318      21.47154984      20.76420068      -0.10734557       0.01149282      -0.02582719
C       20.69963721      22.49354648      18.55145679      -0.15340079       0.14414195      -0.21253574
C       21.74420281      22.75578384      17.45772696       0.04200662       0.28872243       0.08916378
C       21.51766557      24.07805563      16.71252136       0.06296600      -0.11762553       0.16280669
C       22.60073210      24.28214720      15.65493720      -0.21590700      -0.10352926       0.09905605
C       21.54644508      25.22945597      17.71687661      -0.19979509      -0.18854799      -0.07917651
C       22.67466947      20.65741061      16.79959140       0.95691231      -0.40138022       0.46710964
C       22.76953785      19.41998365      15.88288023       0.43495901      -0.00139757       0.10961558
C       23.80722207      18.44284155      16.43908495      -0.11869262       0.06042558      -0.07559670
C       23.97174463      17.23851405      15.51120132       0.11387178      -0.15212142       0.42401858
C       25.53149441      17.51650258      13.67208649       0.88278768      -0.91789386       0.65947678
C       25.76971525      18.14942049      12.40072697       0.67805972       0.41201078      -0.96278437
C       26.12840277      18.67632105      11.37904654      -0.45585299      -0.34683598       0.83746985
C       26.40924297      19.36910823      10.12561718      -0.05395781      -0.09056151      -0.37909112
C       28.36612517      20.32007655      11.25649861       0.02718225       0.00669882       0.14766311
C       28.28383756      20.35899263       8.87898212       0.00394544      -0.03476594       0.00866946
C       26.03537683      18.39345577       8.99483261       0.01624674       0.12294593       0.01607048
C       25.49076389      20.60980400      10.06568314       0.21024219      -0.03267526       0.02134795
C       23.29481891      18.54719318      13.59338964      -0.14334427       0.30996458      -0.14690257
C       23.13104559      19.80936425      14.44654486      -0.21879096      -0.23558674       0.04547908
C       20.59190918      21.48122395      15.69631209      -0.29309550      -0.05411354      -0.19520280
C       20.14559720      19.95824538      20.77815420      -0.20895184       0.06670434      -0.36071977
C       19.05736302      19.47706386      19.81762118      -0.07912192      -0.00477550       0.27373237
C       17.75191470      20.29032431      19.87764821       0.30541556      -0.01099371       0.09658605
C       17.28806134      19.72775997      17.64199329       0.31783569      -0.14624524      -0.15509677
C       18.60538856      18.94438441      17.59642188      -0.18091315      -0.06157325      -0.12634847
C       21.02367751      22.33210101      24.42648244       0.20345719      -0.22602310       0.07676591
C       20.71202335      21.23113155      25.43839555      -0.11308179       0.21563888      -0.05513124
C       19.20303029      20.99381305      25.48676565       0.21433586      -0.16149569      -0.19150997
C       15.10299957      17.15288244      21.09641595      -0.30284756      -0.26756901      -0.48463826
C       14.15636396      16.65330975      20.17352162       0.39024838       0.54327155       0.02390434
C       14.08090418      17.17669352      18.88925318      -0.03133861      -0.07855048      -0.06817527
C       14.95267197      18.17949328      18.54017965       0.00788287      -0.06241710      -0.17953648
C       15.94625082      18.66581444      19.41939069      -0.12007896      -0.00717966       0.16978560
C       16.00964601      18.14171640      20.70446632       0.12088645       0.11440177      -0.08303792
F       21.53579949      18.74619651      15.86839465      -0.12993551       0.00628714      -0.05112986
H       10.90211121      16.84809632      24.81264812       0.01842341       0.04919400       0.06086468
H        9.56889719      17.22770629      23.71888580      -0.01682381       0.06371979       0.01266542
H        9.59211019      15.68026658      24.59051259      -0.01273247       0.03859941       0.03374381
H       11.53615205      16.53649101      22.39373994      -0.13112106      -0.23423064       0.14950898
H        8.58128474      16.47076141      21.80560196       0.00812013      -0.00118251      -0.05304409
H        9.95158419      16.62919373      20.67310854      -0.07109839      -0.01167947      -0.00780283
H        8.81790052      15.25643861      20.52830909      -0.03434374       0.14085603      -0.04163638
H       11.71005301      12.32106858      25.64274249       0.08439946      -0.09224884       0.03399089
H       14.09330694      11.95554867      24.96231690       0.02542013      -0.04605576       0.02253415
H       15.06352852      13.48068635      23.24250811       0.01683114       0.03601968       0.00008883
H       11.83588771      14.33156320      20.78962363       0.12573332       0.21029086      -0.25118948
H       12.04888736      15.26315141      19.29707513      -0.04228339      -0.05482792       0.18489399
H       12.78127213      12.92306515      18.95127714      -0.01472723      -0.09596165      -0.05826004
H       14.17717450      14.00499520      18.84371552       0.03535466      -0.04053931      -0.03291722
H       13.90803845      13.04975671      20.30552344       0.01500318      -0.02630107       0.00861413
H       15.69076077      15.61670045      24.10087670       0.12890329       0.07111612       0.01201771
H       16.72585525      16.81628348      23.31631348       0.01932401      -0.12628564       0.08828681
H       15.79275954      16.53743897      26.33232445      -0.01155900      -0.06112513       0.03613241
H       17.05369487      17.58646166      25.68121958       0.02802484      -0.01124240       0.06396345
H       15.70157172      18.28165810      26.58221716       0.00404753       0.04464995       0.07707533
H       13.51626405      16.45325144      25.23883237      -0.05301635      -0.02407811       0.00835860
H       13.36531551      18.17415307      25.60478010      -0.05811978       0.03632115       0.06386030
H       13.12440541      17.59683157      23.95358666      -0.11867555      -0.01107630       0.01267868
H       14.93266758      19.80390275      24.65625740       0.07132198      -0.20091420      -0.13826134
H       14.92860786      19.12919417      23.01049612       0.12230304       0.03117896       0.16668449
H       19.11567998      19.73915428      23.71950524      -0.01985276       0.22428553       0.07411648
H       18.55646939      22.58678309      23.34685813       0.17586839      -0.20814843      -0.09722072
H       19.47856186      22.03212638      20.74049869       0.24865256      -0.17661715      -0.01342542
H       22.17962652      21.61903174      19.64877257      -0.17135492       0.15716336      -0.11772562
H       22.73550941      22.78381018      17.92131522      -0.29484396       0.02608397      -0.15480511
H       20.53052773      24.06326348      16.24468513       0.09946024      -0.01145153       0.05440664
H       22.43371036      25.21909507      15.13065668       0.03543538       0.04209893      -0.06131943
H       23.57917676      24.32216931      16.12862972       0.09356865       0.01250292       0.00627542
H       22.61047723      23.47549126      14.92801218       0.03677613      -0.04038968      -0.08641841
H       20.73764632      25.12925023      18.43502274      -0.01749017       0.05426698       0.04976175
H       22.49020417      25.24511978      18.25567992       0.11006028       0.02750122       0.03750497
H       21.42772826      26.17511869      17.19667667       0.00821393       0.10614419       0.02084494
H       24.75323346      18.97489814      16.54462413      -0.11137921      -0.09155990       0.01597848
H       23.49406375      18.11410182      17.43014824       0.02840965       0.10291988      -0.06765963
H       23.04000989      16.66569356      15.47942197       0.14557649       0.00078618      -0.03441777
H       24.78210882      16.59762061      15.86193532      -0.20667179       0.09303220      -0.09030214
H       29.45397207      20.31645365      11.19807223      -0.04481146       0.04444617       0.03505353
H       28.03279196      21.36465907      11.35912803       0.02799861      -0.06208394       0.01488965
H       28.06835591      19.76600412      12.14503718       0.13090582       0.13718009      -0.06512625
H       27.89725945      19.86461600       7.99335515       0.03528365       0.06713752      -0.05969430
H       27.98889694      21.41897219       8.86078738      -0.01068424      -0.05281846      -0.05176688
H       29.37236526      20.31220948       8.84604172      -0.05761019       0.05302580      -0.06559417
H       25.08467763      17.91845504       9.22168917      -0.02701842       0.03317176      -0.04415085
H       25.93964143      18.91752526       8.04858975       0.00820431       0.00738194      -0.07460853
H       26.79927655      17.62671004       8.90962460       0.00770379      -0.02859969       0.00651413
H       25.69469297      21.27987027      10.89782549      -0.01896722       0.02552226      -0.01483593
H       25.64573769      21.14309673       9.13189621      -0.01517341       0.03619580      -0.04615636
H       24.45254087      20.29506722      10.12034260      -0.06172424       0.00504477      -0.01805120
H       23.59010697      18.81112336      12.57874947      -0.20814783      -0.06679531       0.20450833
H       22.34502483      18.00348238      13.56628859       0.13423494       0.09996663      -0.09201466
H       22.36221784      20.44487967      14.01109991       0.03424784       0.06459009       0.05488659
H       24.07100678      20.36302998      14.47762532      -0.05969961       0.00061077      -0.02929701
H       20.45885332      20.47253336      15.32966524       0.09390881       0.07843877       0.02916412
H       19.70181271      21.75795893      16.26212939       0.03275811      -0.00187450      -0.10437304
H       20.69918949      22.16470022      14.85308362      -0.07510267      -0.06593474      -0.00091432
H       21.07527290      19.44565977      20.52110928      -0.07769933       0.00233743       0.13049431
H       19.85119456      19.66212628      21.78151417       0.03247580      -0.05535341      -0.00891873
H       18.82233903      18.42828278      20.07833702       0.03542213       0.25723024      -0.03257309
H       17.95383265      21.30005673      19.50704388       0.06801429      -0.15348317       0.19433316
H       17.37806746      20.35790143      20.89769706       0.03751349       0.01078884      -0.09211191
H       16.58736831      19.29311864      16.93515061       0.04795532       0.08225129       0.03937525
H       17.47718376      20.76970021      17.36439809      -0.01436817      -0.15377697      -0.04482764
H       19.05995164      18.97896512      16.60769352      -0.05900834      -0.04816986       0.02780089
H       18.40856444      17.89463854      17.86827100       0.01842748       0.16943917      -0.11477154
H       22.09618338      22.45624529      24.28045742      -0.22152039       0.02880327       0.03188590
H       20.58768176      23.28170112      24.75391760       0.06282818      -0.04310386      -0.01230708
H       21.07903937      21.52455126      26.42035258       0.04128544      -0.04597794       0.00926266
H       21.21937011      20.31284962      25.13848600       0.04297603       0.06115007       0.04780645
H       18.68987822      21.88369692      25.85794488      -0.02216688      -0.08472863      -0.02673669
H       18.96722680      20.15938823      26.14664819      -0.06328060       0.03022266       0.01200496
H       13.34839024      16.82620079      18.17800439      -0.02656432      -0.00080017      -0.04773868
H       14.85324637      18.61633029      17.55977944      -0.00454577       0.02964977       0.00382374
H       16.74724509      18.47583784      21.41593844       0.02687808       0.04737020      -0.03274331
