151
Properties=species:S:1:pos:R:3:MACE_forces:R:3 energy:=T -221.332216148708=T gnorm:=T 0.004217089894=T xtb:=T 6.7.1=T (edcfbbe)=T MACE_energy=-90873.37129056187 pbc="F F F"
C       10.09473637      16.24518085      23.99276010       0.05471971      -0.19504019      -0.34637241
N       11.47021452      13.80348137      24.35508354      -0.28238947       0.12576465       0.07625184
O       10.13382597      14.82441451      21.98127961       0.01898368       0.00528132       0.21528794
C       10.92275100      15.60935787      22.87671682      -0.02614847       0.19874187      -0.01954340
N       13.46696957      15.69347436      20.78912001      -0.13076949       0.08575719       0.25186020
O       16.74108411      19.38042670      24.04669865       0.01392845      -0.64163771       0.06642019
C        9.18244843      15.54529222      21.22841641       0.14353171      -0.03896190       0.09901499
N       19.11452686      21.73337007      23.13465318      -0.30489897       0.23655358       0.02664509
O       26.28172457      16.86269946      14.13872262      -0.59457729       0.56103838      -0.37664432
C       11.94480511      14.64400447      23.44669429       0.24588524       0.12003367      -0.27404903
N       20.49118718      21.96477071      23.21528292      -0.47486361       0.10468081       0.90282675
O       23.54449250      20.89958148      17.64628523      -0.38253803      -0.20769993      -0.34508657
C       12.26927501      12.89881726      24.88968935       0.09360394      -0.18717689       0.06510993
N       21.26278706      21.89203592      19.70095777       0.52681150      -0.27389631       0.44022693
O       19.53974722      22.80826711      18.56527895       0.06673609       0.07827176      -0.06292216
C       13.60267787      12.76566438      24.53516945       0.00095098       0.05087627      -0.03520233
N       21.71472773      21.70536356      16.62279507      -0.33152036       0.37595227      -0.01365145
O       19.70315920      19.45292252      18.56471702       0.04580102       0.10921563       0.09451764
C       14.11012829      13.64337720      23.59596626      -0.14428610       0.00355939      -0.01408335
N       24.22542928      17.82381590      14.11650684      -0.42728634       0.04486219       0.14934225
O       22.47029975      22.02526513      22.13497791      -0.48156832      -0.14580542      -0.00139828
C       13.28560089      14.61922294      23.03245242      -0.10617315      -0.31432827       0.24140589
N       27.88285901      19.35253158       9.88603370       0.00613394      -0.05733306       0.06494799
O       16.44323168      21.59849739      23.91272934       0.36651110      -0.38106895       0.02969487
C       13.87759351      15.58114228      22.09738904       0.21533985       0.24612346       0.20613416
N       16.88790108      19.68746692      19.04107430      -0.07621931       0.24221096      -0.09892865
C       12.65061456      14.74246286      20.07639206      -0.07803438      -0.49805131      -0.20517117
C       13.50045323      13.63569498      19.45487519      -0.09055404       0.17414878       0.03264998
C       14.89240609      16.47927599      22.35920310      -0.11131508      -0.29877546       0.10007979
C       15.61156371      16.66314149      23.65865639      -0.14024943       0.06812764       0.03600474
C       15.03306631      17.74617562      24.59869139       0.21941157       0.18424863       0.05144338
C       15.68602123      17.60105661      25.97634474      -0.02372456       0.06003754      -0.25734336
C       13.51842082      17.59766222      24.73291473       0.25581876       0.12204968      -0.08835726
C       15.32339543      19.14582377      24.04597251      -0.65618488      -0.00340894       0.05272950
C       17.16141950      20.62560917      23.99124641      -0.04449922       0.95894040      -0.14994518
C       18.67690467      20.70556258      24.07227457      -0.08304251      -0.04429772       0.23545452
C       21.25884162      21.84457370      22.12126197       0.74669105       0.13209058      -0.98680780
C       20.50080290      21.46510670      20.84758006      -0.15972844       0.01543879       0.03992874
C       20.73029975      22.53032073      18.65635236      -0.15957034       0.14822607      -0.20138131
C       21.73836453      22.84512812      17.54445381       0.03854136       0.29160838       0.10904820
C       21.46356529      24.19307029      16.86274377       0.07202513      -0.14473899       0.14904989
C       22.49904320      24.46055430      15.77300104      -0.19584369      -0.12798946       0.09775960
C       21.51236794      25.30043078      17.91512033      -0.19464044      -0.16830483      -0.06259422
C       22.66114351      20.77675355      16.79404291       0.98223966      -0.42050572       0.44848007
C       22.73374204      19.55852473      15.85103515       0.47776989       0.00266745       0.11333736
C       23.74312159      18.54606902      16.39479604      -0.12513600       0.06533697      -0.07780773
C       23.88532571      17.35942469      15.44224926       0.11511534      -0.18384925       0.40731267
C       25.43947423      17.57897843      13.59231779       0.93526655      -0.98244856       0.65419716
C       25.70749316      18.20084942      12.32177556       0.65166126       0.39127233      -1.04314490
C       26.09165346      18.68185333      11.28610417      -0.50211347      -0.34165736       0.90046342
C       26.42064428      19.32189536      10.01587168      -0.08498309      -0.05515250      -0.33258178
C       28.56863901      19.94713658      11.01504584       0.05764898       0.01901442       0.13223388
C       28.37892773      19.90437214       8.64334702      -0.00189901      -0.01310982       0.00388894
C       25.81003642      18.43870816       8.91369843       0.03638657       0.11807413       0.00090392
C       25.74433814      20.70972413      10.00270528       0.19719755      -0.06132235      -0.00852398
C       23.25690173      18.72745279      13.54637197      -0.14455421       0.32770302      -0.18640036
C       23.11102676      19.97442404      14.42614246      -0.23212710      -0.27979179       0.05261897
C       20.55458209      21.63131948      15.75878381      -0.27688595      -0.06942151      -0.12928522
C       20.26614222      19.94514862      20.85210898      -0.19537200       0.10184035      -0.34443733
C       19.18554183      19.45093146      19.89073866      -0.12339517       0.00185328       0.22946876
C       17.87498864      20.26045618      19.93320680       0.33229341      -0.00017495       0.12913973
C       17.43790921      19.69094136      17.69676795       0.31155481      -0.19668383      -0.12492952
C       18.75524251      18.90702100      17.66688155      -0.20601598      -0.04894934      -0.14284674
C       21.03277605      22.28460332      24.52673871       0.18885151      -0.21513214       0.06169276
C       20.64029899      21.19223668      25.52090838      -0.09022842       0.23181120      -0.05575724
C       19.12204768      21.01275179      25.51329177       0.18590105      -0.20979719      -0.18665118
C       15.13687991      17.17948153      21.13867391      -0.26524471      -0.27599077      -0.47240599
C       14.23333197      16.65507854      20.18703176       0.35782131       0.53674353       0.01361317
C       14.20754929      17.15195867      18.89034140      -0.02088889      -0.07683381      -0.04690752
C       15.09307223      18.14657129      18.55474809       0.02402431      -0.04524721      -0.18858526
C       16.05457721      18.65036248      19.46068812      -0.14005847      -0.02940821       0.18229133
C       16.06075285      18.15820919      20.76058830       0.13976925       0.13914964      -0.08168713
F       21.49045679      18.90769000      15.80727091      -0.17483698      -0.00044952      -0.03732673
H       10.75747106      16.74164131      24.69429053       0.00823513       0.05545320       0.06568916
H        9.40436579      16.97858876      23.58559709      -0.02059928       0.06678158       0.01605109
H        9.54191119      15.46809824      24.51150255      -0.01643939       0.04018995       0.03076415
H       11.43259137      16.39820947      22.29935321      -0.09711715      -0.22813948       0.14699506
H        8.33995850      15.86986768      21.84454585       0.03549707       0.01685718      -0.06510699
H        9.64211426      16.41702924      20.74951705      -0.06483450      -0.02560133      -0.01212413
H        8.82505577      14.85425093      20.46747939      -0.05953516       0.14189848      -0.01508609
H       11.81228441      12.25680587      25.63042995       0.08918514      -0.09174768       0.03325562
H       14.22026407      12.00199806      24.97940524       0.02939718      -0.04058424       0.03583979
H       15.14063709      13.57736350      23.27821512       0.01456237       0.02849570       0.00960067
H       11.92583535      14.30647715      20.76573890       0.11440482       0.22031640      -0.25328182
H       12.10609105      15.27852592      19.29504336      -0.04381194      -0.06935958       0.18507739
H       12.86505282      12.94532385      18.90811603      -0.01088971      -0.08541688      -0.06069782
H       14.23486751      14.05685564      18.77172588       0.03028838      -0.03869083      -0.02185799
H       14.02569248      13.08458503      20.23186014       0.01234596      -0.02247250       0.00850419
H       15.59602229      15.71900910      24.20492413       0.11355363       0.08486501       0.01296064
H       16.65228782      16.91842772      23.45074098       0.00638744      -0.13565052       0.09547259
H       15.46286538      16.62388274      26.39464994      -0.01836330      -0.07416642       0.04564423
H       16.76417740      17.70878804      25.89770579       0.05816138      -0.03394693       0.06996867
H       15.30894657      18.36076549      26.65667842       0.00277539       0.06214902       0.08712162
H       13.27107434      16.58311478      25.03319810      -0.05752027      -0.01775672       0.02814700
H       13.13382973      18.28581323      25.48155075      -0.06126732       0.03203919       0.05016645
H       13.02949566      17.80745145      23.78551403      -0.10714158      -0.03517170      -0.01348238
H       14.84577801      19.91794417      24.65710698       0.08712052      -0.17013646      -0.09543660
H       14.95844533      19.24290370      23.01938939       0.09115956       0.01102779       0.18531779
H       19.09552505      19.74305755      23.76134665      -0.03603513       0.21705953       0.06928052
H       18.59435338      22.59219237      23.32244007       0.16918669      -0.23083284      -0.09123332
H       19.54905628      21.99811209      20.83359182       0.28253469      -0.16946648      -0.02390695
H       22.24880262      21.66477852      19.71277019      -0.17391843       0.16411102      -0.13801652
H       22.74411527      22.86965009      17.97531052      -0.29778744       0.02996976      -0.14014168
H       20.45863178      24.17970279      16.43466211       0.10686129      -0.01039467       0.04264833
H       22.27485096      25.39768980      15.27106520       0.03541951       0.05097327      -0.05402787
H       23.49115166      24.53297113      16.21286659       0.09896337       0.01630858       0.00265605
H       22.51614089      23.66685907      15.03171583       0.03687306      -0.02717122      -0.08442405
H       20.70271376      25.18339185      18.63076679       0.00159127       0.04813409       0.03834749
H       22.45663923      25.27751960      18.45426516       0.09570252       0.02979045       0.01760001
H       21.41021486      26.26996598      17.43639780      -0.00043235       0.09426716       0.02826964
H       24.70038635      19.05089172      16.52484403      -0.11175010      -0.08039227       0.00215532
H       23.40719691      18.20264300      17.37381109       0.04622470       0.10153171      -0.06809781
H       22.94177956      16.80703530      15.39473648       0.13980934       0.00246262      -0.03230802
H       24.67975798      16.69304708      15.78227485      -0.21114844       0.09962595      -0.08900735
H       29.62617160      19.69191082      10.94627083      -0.04835521       0.06363700       0.03682908
H       28.48299036      21.04446566      11.04593352      -0.00131696      -0.06509651       0.02560412
H       28.17672961      19.53550738      11.94322323       0.15933474       0.09641846      -0.06545404
H       27.90505752      19.41576966       7.79786292       0.04583270       0.06199053      -0.06529762
H       28.23388977      20.99282897       8.56206542      -0.00864968      -0.07106636      -0.04129622
H       29.44940758      19.70506487       8.59469522      -0.05423314       0.04722847      -0.06748781
H       24.79534009      18.16212195       9.18871458      -0.00795624       0.04479663      -0.04146961
H       25.77589379      18.97077779       7.96728074       0.00313839      -0.00020723      -0.06417775
H       26.39983509      17.53427126       8.80188635       0.01687715      -0.03158053       0.00069586
H       26.09344508      21.31526236      10.83541583      -0.01069042       0.03992766      -0.00935498
H       25.96776085      21.22142531       9.07055952      -0.01553478       0.04340218      -0.04309043
H       24.66785750      20.59187028      10.08586059      -0.06393647       0.00877677      -0.00128837
H       23.57023647      19.00631128      12.54011763      -0.20800157      -0.06352965       0.22700189
H       22.29277230      18.21040693      13.49569758       0.13972961       0.10134531      -0.09463169
H       22.34911141      20.62685620      14.00375570       0.02929665       0.08283862       0.04657803
H       24.05637786      20.51533069      14.47205606      -0.02637068       0.00907013      -0.02310416
H       20.41867324      20.63924293      15.35372369       0.10031474       0.04432741       0.00871798
H       19.67410355      21.87980926      16.35036939       0.01124665       0.01808479      -0.09100645
H       20.64569876      22.34811622      14.94510110      -0.07690537      -0.01827712      -0.06499572
H       21.20488318      19.45179924      20.59053646      -0.07837981       0.00179421       0.12775841
H       19.98175787      19.63873530      21.85550756       0.03457055      -0.05096687      -0.00160001
H       18.95067463      18.40303500      20.15460887       0.03803559       0.25071456      -0.02181272
H       18.07770894      21.26830073      19.55800848       0.05855558      -0.16539131       0.21036636
H       17.49351631      20.33641781      20.94970795       0.02081556       0.00104616      -0.09616149
H       16.74676117      19.25960802      16.97928131       0.04297692       0.08208388       0.03969698
H       17.63280294      20.73236732      17.42411002      -0.01812794      -0.12953286      -0.05414882
H       19.21782810      18.93777442      16.68234766      -0.04516799      -0.04727174       0.02032234
H       18.55679049      17.85869283      17.94222564       0.01190555       0.16579562      -0.11205848
H       22.11424393      22.36495775      24.41853039      -0.22258016       0.03753365       0.03199401
H       20.62718259      23.25015509      24.84630083       0.05917424      -0.04632528      -0.01283390
H       20.98520644      21.46665001      26.51629799       0.03051720      -0.04337145       0.00992212
H       21.12074361      20.25532040      25.23393517       0.04006979       0.05996834       0.05772966
H       18.63207193      21.92964990      25.84877203      -0.03822234      -0.07239325      -0.01644613
H       18.82578878      20.19890043      26.17386534      -0.05521809       0.03146766       0.01045684
H       13.50539142      16.78444155      18.15766016      -0.03123784      -0.00406130      -0.05181611
H       15.03296185      18.56138951      17.56192195      -0.01170964       0.01928044       0.00198384
H       16.77369875      18.50835281      21.48997747       0.02199261       0.02546907      -0.03013731
