151
Properties=species:S:1:pos:R:3:MACE_forces:R:3 energy:=T -221.332166857163=T gnorm:=T 0.003464028778=T xtb:=T 6.7.1=T (edcfbbe)=T MACE_energy=-90873.39313350123 pbc="F F F"
C       10.18305385      16.34878732      24.06879607       0.05218375      -0.19438676      -0.35559375
N       11.45570898      13.84077615      24.32772634      -0.27822219       0.14626166       0.07866450
O       10.14562689      15.03656612      21.98999897       0.01973652      -0.02371705       0.20975393
C       10.97890705      15.72864334      22.92029439      -0.01556386       0.21734466       0.01209799
N       13.45193249      15.72380706      20.77595074      -0.15478886       0.08810638       0.24049856
O       16.80198115      19.31269627      24.08137169       0.06803492      -0.61539500       0.08691738
C        9.31410869      15.86279989      21.20453411       0.14863734      -0.04034997       0.10325671
N       19.09432393      21.72135062      23.07165443      -0.31688787       0.25724385       0.03083500
O       25.99994196      16.62158650      14.07451643      -0.53331825       0.58368472      -0.37854928
C       11.95371894      14.68806514      23.43924808       0.25162501       0.12858995      -0.30006049
N       20.45978367      22.01079381      23.16224760      -0.49121641       0.07960064       0.88278005
O       23.38750672      20.71230833      17.64421264      -0.35597733      -0.18596462      -0.38888547
C       12.22356982      12.88460521      24.81793266       0.08228836      -0.20470149       0.07681933
N       21.28852405      21.89950911      19.65068929       0.46787015      -0.22702147       0.44933742
O       19.59350565      22.86910659      18.51612747       0.10088023       0.05651326      -0.05423953
C       13.54512849      12.70766484      24.44016163       0.00526543       0.05982908      -0.04215341
N       21.67780287      21.67832899      16.55490867      -0.26249989       0.38901504      -0.02046989
O       19.65618667      19.49436341      18.54976073       0.05516075       0.11308135       0.04154047
C       14.07636970      13.59056645      23.51827691      -0.14057602       0.00490811       0.00232701
N       24.01407754      17.71974768      14.02857699      -0.44238005       0.04702277       0.13228648
O       22.44028252      22.16712342      22.09617909      -0.48042969      -0.18537314      -0.00691061
C       13.28463351      14.61475927      22.99815117      -0.11365092      -0.30176587       0.21699633
N       27.92878754      19.35250610      10.08335589       0.01786057      -0.08207530       0.07906169
O       16.42346385      21.50856772      23.84390595       0.40528952      -0.38777063       0.04041571
C       13.88742726      15.57951489      22.07252488       0.22868630       0.22779388       0.23774923
N       16.84699862      19.75344315      19.05557605      -0.07132263       0.20430958      -0.07456561
C       12.62755356      14.78216230      20.05882024      -0.06417033      -0.50870871      -0.20599534
C       13.46733217      13.64345994      19.48057531      -0.10220430       0.20624579       0.04580659
C       14.91681639      16.46031105      22.33372061      -0.11991235      -0.30713628       0.08559182
C       15.68559589      16.58650739      23.61095161      -0.13967137       0.08483890       0.07536372
C       15.15077467      17.61921872      24.62957223       0.23363481       0.18968848       0.02676655
C       15.88416056      17.41709748      25.95846575      -0.03219905       0.06130699      -0.23521375
C       13.64832564      17.45132842      24.84633315       0.24729252       0.10832383      -0.10089642
C       15.39224547      19.04462345      24.12212391      -0.67858665      -0.02785077       0.06898460
C       17.17882493      20.56780256      23.96229920      -0.11959263       0.95141349      -0.20942495
C       18.68881608      20.70884721      24.03873075      -0.09491308      -0.06378463       0.27230138
C       21.24015492      21.92279202      22.07368607       0.78763204       0.15696256      -0.95819128
C       20.50786018      21.50645407      20.79711198      -0.14868362       0.04292247       0.00564350
C       20.77438300      22.54843285      18.60418288      -0.19944061       0.15797537      -0.20844402
C       21.78170534      22.81195343      17.47913922       0.06082499       0.25680677       0.11281792
C       21.57139030      24.17708785      16.81021976       0.06601926      -0.13686058       0.14346460
C       22.58402566      24.39285293      15.68830525      -0.18563590      -0.11899767       0.10482334
C       21.72597205      25.26779423      17.86990104      -0.19436613      -0.13542732      -0.05277436
C       22.53709247      20.67109174      16.75191255       0.88844063      -0.43286524       0.49177219
C       22.56639951      19.47626585      15.77833518       0.47737084      -0.05331480       0.10730088
C       23.51013857      18.39737883      16.31129142      -0.13338601       0.06253551      -0.08282392
C       23.60155719      17.23319377      15.32525354       0.08826110      -0.18158675       0.40966860
C       25.22365888      17.40906729      13.52950477       0.79605426      -1.00857782       0.65554748
C       25.57118757      18.06297790      12.29504087       0.78577721       0.32746165      -0.94576119
C       26.04648958      18.57071745      11.31156693      -0.57857731      -0.30775262       0.78212302
C       26.46261247      19.28005883      10.10626002      -0.07022726      -0.05865179      -0.38708471
C       28.53480327      19.78442880      11.32520251       0.04202496      -0.00382181       0.17404766
C       28.48823797      20.08869986       8.96926458      -0.00107402      -0.01760058       0.01849105
C       25.96764977      18.44342151       8.91289604       0.05462994       0.11860147       0.02660168
C       25.74966875      20.64965861      10.11884610       0.19596801      -0.06235537      -0.03217753
C       23.11718698      18.69399115      13.45664555      -0.10401490       0.34074685      -0.16158601
C       22.99437213      19.91566091      14.37499868      -0.23669832      -0.26785318       0.03752758
C       20.51340056      21.68147410      15.69304882      -0.31047444      -0.03138608      -0.17846863
C       20.25755455      19.98955752      20.82180071      -0.18737516       0.07198269      -0.33028101
C       19.15583946      19.49760397      19.88152262      -0.09202717      -0.02290459       0.27487825
C       17.84829370      20.30906845      19.94552685       0.28647070      -0.00723338       0.12522535
C       17.38791914      19.76548529      17.70670728       0.29979815      -0.17919136      -0.11336822
C       18.69172233      18.96319248      17.66064186      -0.21156791      -0.05165795      -0.14705938
C       20.96847165      22.40315611      24.46665716       0.19825314      -0.19006800       0.08305092
C       20.60562749      21.33938183      25.50195121      -0.10627108       0.22403714      -0.06302713
C       19.09863172      21.08428418      25.47460812       0.22347568      -0.19152680      -0.18147054
C       15.13994065      17.18894584      21.12540215      -0.28231606      -0.25003025      -0.48275986
C       14.21473847      16.69172194      20.17937263       0.38329505       0.52524905       0.03831740
C       14.17100508      17.21404039      18.89369646      -0.02055249      -0.05899152      -0.07143466
C       15.05300250      18.21433243      18.56521031       0.01558900      -0.05458047      -0.17251280
C       16.02663521      18.70013701      19.46759143      -0.11915671       0.00661923       0.16326266
C       16.05656718      18.17740147      20.75475484       0.13614249       0.13385159      -0.06440081
F       21.29292455      18.89181972      15.68644445      -0.17357451       0.02154096      -0.03743260
H       10.86779730      16.75242152      24.80736814       0.01687146       0.05466257       0.07012016
H        9.54811542      17.15147501      23.70464235      -0.02373467       0.06524224       0.01071035
H        9.57315021      15.57897252      24.53121574      -0.01399195       0.03956185       0.04046543
H       11.53057403      16.51610720      22.38119112      -0.12122026      -0.22935048       0.13860487
H        8.53402587      16.34053460      21.80238368       0.02154076      -0.00123359      -0.06230831
H        9.90187840      16.63342894      20.69201007      -0.07486706      -0.02617803      -0.00202639
H        8.85364367      15.20340781      20.47184965      -0.04227367       0.15117084      -0.02634260
H       11.75032894      12.23722844      25.54372623       0.08557944      -0.09287091       0.02876732
H       14.13675267      11.90701271      24.85335156       0.02483428      -0.04823105       0.03395336
H       15.09860128      13.49007247      23.18323394       0.01548073       0.03363901       0.00181618
H       11.87189740      14.37886730      20.73525262       0.12431767       0.21069863      -0.25018438
H       12.12148422      15.31919911      19.25350932      -0.04426170      -0.05642763       0.18043068
H       12.84110625      12.98646889      18.88534288      -0.02004504      -0.10268184      -0.06154987
H       14.26098698      14.04168042      18.85232808       0.02925582      -0.04103023      -0.03535357
H       13.91747156      13.06412356      20.28354441       0.01774230      -0.02619190       0.00645099
H       15.69830343      15.61653581      24.11035373       0.11159874       0.07683509       0.01351749
H       16.71553758      16.85783756      23.37040752       0.00404206      -0.14215880       0.09393467
H       15.63482978      16.44514566      26.37571652       0.00033368      -0.06300165       0.03469990
H       16.95972007      17.46778307      25.81170403       0.04879224      -0.01219665       0.05973648
H       15.59435404      18.18294027      26.67416602      -0.00122006       0.04758208       0.08720782
H       13.42454169      16.42691148      25.13169646      -0.05033515      -0.01899112       0.02032506
H       13.30363248      18.11480489      25.63563846      -0.06530115       0.02980229       0.05414575
H       13.10454687      17.68398764      23.93505696      -0.11105025      -0.02422600      -0.00623879
H       14.92286889      19.78073827      24.78283032       0.08967268      -0.15974018      -0.11046124
H       14.98190278      19.17651584      23.11646066       0.10284755      -0.00303246       0.17840326
H       19.14721013      19.75252418      23.76686740      -0.03978986       0.22307795       0.05675412
H       18.53762015      22.56354693      23.22895216       0.17769253      -0.21938031      -0.08762644
H       19.56319799      22.05114766      20.75036989       0.26835830      -0.19087335       0.00675321
H       22.26662573      21.64197166      19.65683892      -0.18936278       0.13009274      -0.13185259
H       22.79467635      22.77834996      17.89269335      -0.29946417       0.04582361      -0.12855218
H       20.55413812      24.23090600      16.41524038       0.10894652      -0.02489112       0.04614648
H       22.40577632      25.35208034      15.21028463       0.03712891       0.05021874      -0.05659242
H       23.59441729      24.39126973      16.09174231       0.09120858       0.01099052       0.00138025
H       22.52087495      23.61427923      14.93396020       0.03754142      -0.03036732      -0.08530307
H       20.96243096      25.16642225      18.63735395       0.00486573       0.06054958       0.03083469
H       22.70320398      25.20639736      18.34480052       0.07022558       0.01924918       0.00676045
H       21.62476836      26.24820703      17.41229461       0.00544023       0.07242378       0.03432899
H       24.49218902      18.84442644      16.46607157      -0.11593499      -0.06917454       0.01001555
H       23.14203820      18.04725131      17.27590296       0.04373172       0.10172727      -0.06221103
H       22.62388343      16.75056808      15.23032025       0.14817758      -0.01206381      -0.02500775
H       24.33685839      16.50244367      15.66506796      -0.19029784       0.11602365      -0.09213207
H       29.60667436      19.59773239      11.26322660      -0.04243159       0.05723622       0.04347418
H       28.38607341      20.85570370      11.53283778       0.00630704      -0.06359294       0.01274547
H       28.13341638      19.20577701      12.15504991       0.16287396       0.11547519      -0.05347632
H       28.02972989      19.77435481       8.03771946       0.03815444       0.05468358      -0.06462844
H       28.38152977      21.17928753       9.07542183      -0.02148138      -0.06073529      -0.05821711
H       29.55217551      19.85926242       8.91863169      -0.02908674       0.06517491      -0.06306037
H       24.92579837      18.17362596       9.06126733      -0.03108586       0.02884486      -0.02868207
H       26.04841315      19.00499729       7.98716619      -0.00741678       0.02134353      -0.06622190
H       26.56006626      17.53657667       8.83568491       0.00006657      -0.01674346       0.00688979
H       26.03077614      21.21711395      11.00179106       0.00352291       0.06341145       0.01205936
H       26.01168104      21.21633930       9.23020360      -0.00178229       0.04775292      -0.05465670
H       24.67445811      20.49915085      10.13053948      -0.07349419       0.00957365      -0.00769604
H       23.48939989      18.99519518      12.47754055      -0.22935008      -0.06413773       0.20001755
H       22.13172899      18.23013800      13.34392686       0.13820227       0.09196877      -0.08139692
H       22.26428389      20.60553502      13.95571864       0.04365711       0.08325774       0.04736258
H       23.95565936      20.42281347      14.45971201      -0.02145707       0.00556180      -0.02551718
H       20.27697465      20.68794769      15.33701699       0.11980932       0.06383013       0.00423975
H       19.66438983      22.04318275      16.27344638       0.03338257      -0.00481262      -0.09738826
H       20.66794656      22.34698819      14.84394475      -0.08040103      -0.04456504      -0.01697630
H       21.18563254      19.48668426      20.54028229      -0.07550938       0.00276642       0.14191470
H       19.99343590      19.69024711      21.83233641       0.02623749      -0.04979005      -0.01837675
H       18.92287209      18.45065684      20.15282978       0.04360689       0.26022221      -0.03359011
H       18.04662021      21.32215319      19.58300674       0.07347450      -0.15208507       0.18990631
H       17.47553646      20.37181266      20.96640011       0.03208271       0.00964643      -0.11040159
H       16.68558247      19.35307585      16.98888921       0.04208946       0.08590688       0.04076109
H       17.59693060      20.80749219      17.44561756      -0.01987119      -0.14252658      -0.05591653
H       19.14254210      18.98954995      16.67108056      -0.02982827      -0.05266600       0.02361472
H       18.48186474      17.91673537      17.93584898       0.01302163       0.17493137      -0.11215299
H       22.04751633      22.52130130      24.36918369      -0.22485807       0.03201663       0.03099942
H       20.52265893      23.36527368      24.74127514       0.05766030      -0.05010410      -0.00977263
H       20.91131050      21.67865067      26.49032036       0.04585492      -0.04815979       0.00689176
H       21.13841871      20.41528613      25.27265585       0.03258090       0.05769272       0.04417954
H       18.55781152      21.98627070      25.77088620      -0.02576548      -0.07922192      -0.01384730
H       18.83130803      20.27845977      26.15682594      -0.05918802       0.03156084       0.01534021
H       13.45831897      16.86304597      18.16308470      -0.03509356      -0.00451497      -0.04556941
H       14.97943381      18.64828990      17.58169867      -0.01536726       0.02620468       0.00210086
H       16.78059774      18.51249503      21.48055782       0.02083703       0.02633589      -0.03417262
