151
Properties=species:S:1:pos:R:3:MACE_forces:R:3 energy:=T -221.332216148708=T gnorm:=T 0.004217089894=T xtb:=T 6.7.1=T (edcfbbe)=T MACE_energy=-90873.33067418118 pbc="F F F"
C       10.09473637      16.24518085      23.99276010       0.03132437      -0.15370532      -0.36389236
N       11.47021452      13.80348137      24.35508354      -0.28896725       0.08029751       0.07170051
O       10.13382597      14.82441451      21.98127961       0.00036421       0.03374941       0.18432729
C       10.92275100      15.60935787      22.87671682      -0.03213130       0.19780971       0.01314625
N       13.46696957      15.69347436      20.78912001      -0.18930172       0.09465002       0.18225731
O       16.74108411      19.38042670      24.04669865       0.06946358      -0.73049864       0.03385597
C        9.18244843      15.54529222      21.22841641       0.14645731      -0.07093899       0.11054382
N       19.11452686      21.73337007      23.13465318      -0.35231458       0.17650638      -0.05876867
O       26.28172457      16.86269946      14.13872262      -0.55444207       0.58066561      -0.40739002
C       11.94480511      14.64400447      23.44669429       0.22349192       0.11795334      -0.30183929
N       20.49118718      21.96477071      23.21528292      -0.42957783       0.09557411       0.90369288
O       23.54449250      20.89958148      17.64628523      -0.37213158      -0.14358519      -0.37599050
C       12.26927501      12.89881726      24.88968935       0.12022914      -0.17643432       0.07401701
N       21.26278706      21.89203592      19.70095777       0.56358280      -0.28949505       0.54767778
O       19.53974722      22.80826711      18.56527895       0.07786729       0.09087790      -0.08799438
C       13.60267787      12.76566438      24.53516945      -0.00882843       0.04762203      -0.00978742
N       21.71472773      21.70536356      16.62279507      -0.35181255       0.42222567       0.02669985
O       19.70315920      19.45292252      18.56471702       0.01357581       0.09799118       0.11548868
C       14.11012829      13.64337720      23.59596626      -0.15245398      -0.01096982      -0.04048230
N       24.22542928      17.82381590      14.11650684      -0.43764327       0.04471801       0.09526484
O       22.47029975      22.02526513      22.13497791      -0.50402388      -0.16527291      -0.00860468
C       13.28560089      14.61922294      23.03245242      -0.10310593      -0.37546846       0.27316101
N       27.88285901      19.35253158       9.88603370       0.01477529      -0.05283393       0.03702635
O       16.44323168      21.59849739      23.91272934       0.41791575      -0.38537369       0.02881685
C       13.87759351      15.58114228      22.09738904       0.27388030       0.26347723       0.17353240
N       16.88790108      19.68746692      19.04107430      -0.01766544       0.28047273      -0.04516298
C       12.65061456      14.74246286      20.07639206      -0.05217000      -0.45661246      -0.18899629
C       13.50045323      13.63569498      19.45487519      -0.09114749       0.17554171       0.02290132
C       14.89240609      16.47927599      22.35920310      -0.10119507      -0.31998356       0.11669628
C       15.61156371      16.66314149      23.65865639      -0.16821463       0.06867400       0.03376655
C       15.03306631      17.74617562      24.59869139       0.24017994       0.17784854       0.01910997
C       15.68602123      17.60105661      25.97634474      -0.04841015       0.07162989      -0.24472523
C       13.51842082      17.59766222      24.73291473       0.24438675       0.14232058      -0.06683035
C       15.32339543      19.14582377      24.04597251      -0.61825908       0.03420959       0.04465965
C       17.16141950      20.62560917      23.99124641      -0.03292420       1.03400418      -0.14100205
C       18.67690467      20.70556258      24.07227457      -0.06378575      -0.01925401       0.27140143
C       21.25884162      21.84457370      22.12126197       0.61837904       0.15554573      -0.91774885
C       20.50080290      21.46510670      20.84758006      -0.13221269       0.06194572      -0.04175205
C       20.73029975      22.53032073      18.65635236      -0.19515554       0.20095551      -0.22008313
C       21.73836453      22.84512812      17.54445381       0.04474522       0.25180287       0.11186735
C       21.46356529      24.19307029      16.86274377       0.07980737      -0.12085855       0.15622229
C       22.49904320      24.46055430      15.77300104      -0.22076937      -0.12578857       0.11451151
C       21.51236794      25.30043078      17.91512033      -0.19788310      -0.17903502      -0.05925078
C       22.66114351      20.77675355      16.79404291       0.89256618      -0.40879535       0.40881367
C       22.73374204      19.55852473      15.85103515       0.55597000       0.09697168       0.15572468
C       23.74312159      18.54606902      16.39479604      -0.18028673      -0.00264237      -0.08132378
C       23.88532571      17.35942469      15.44224926       0.13836687      -0.18564106       0.44260324
C       25.43947423      17.57897843      13.59231779       0.83679471      -0.97210624       0.73631075
C       25.70749316      18.20084942      12.32177556       0.64870416       0.36619430      -0.99434679
C       26.09165346      18.68185333      11.28610417      -0.48795876      -0.30712936       0.82319550
C       26.42064428      19.32189536      10.01587168      -0.07519274       0.00940274      -0.28275944
C       28.56863901      19.94713658      11.01504584       0.07721324       0.04816530       0.10118713
C       28.37892773      19.90437214       8.64334702      -0.02241842      -0.00845482       0.02310319
C       25.81003642      18.43870816       8.91369843       0.03701962       0.09896974      -0.00637343
C       25.74433814      20.70972413      10.00270528       0.18710077      -0.10514987      -0.00532419
C       23.25690173      18.72745279      13.54637197      -0.10839583       0.34672905      -0.12150221
C       23.11102676      19.97442404      14.42614246      -0.21376962      -0.30958530       0.02814343
C       20.55458209      21.63131948      15.75878381      -0.20653105      -0.04769827      -0.09310015
C       20.26614222      19.94514862      20.85210898      -0.21109295       0.07863296      -0.35709292
C       19.18554183      19.45093146      19.89073866      -0.14121453      -0.03441972       0.24911852
C       17.87498864      20.26045618      19.93320680       0.28893402      -0.06493791       0.08809668
C       17.43790921      19.69094136      17.69676795       0.30920935      -0.17306398      -0.09329376
C       18.75524251      18.90702100      17.66688155      -0.16154741       0.00622072      -0.13279645
C       21.03277605      22.28460332      24.52673871       0.24737019      -0.16063300       0.00940177
C       20.64029899      21.19223668      25.52090838      -0.15004721       0.24021889      -0.03592524
C       19.12204768      21.01275179      25.51329177       0.13082362      -0.25117832      -0.17069961
C       15.13687991      17.17948153      21.13867391      -0.27685945      -0.24636071      -0.46760212
C       14.23333197      16.65507854      20.18703176       0.38153271       0.51091039       0.09553468
C       14.20754929      17.15195867      18.89034140      -0.01593511      -0.05736196      -0.10318494
C       15.09307223      18.14657129      18.55474809      -0.02257795      -0.08104695      -0.18808521
C       16.05457721      18.65036248      19.46068812      -0.10522126      -0.03208500       0.18211197
C       16.06075285      18.15820919      20.76058830       0.15338901       0.13361584      -0.05966345
F       21.49045679      18.90769000      15.80727091      -0.20168786      -0.10178246      -0.04059080
H       10.75747106      16.74164131      24.69429053      -0.00479822       0.06502318       0.06832528
H        9.40436579      16.97858876      23.58559709      -0.00876902       0.06379116       0.02213580
H        9.54191119      15.46809824      24.51150255       0.00183941       0.02236103       0.03759887
H       11.43259137      16.39820947      22.29935321      -0.08682310      -0.22507559       0.13648922
H        8.33995850      15.86986768      21.84454585       0.03581912       0.02556409      -0.07123323
H        9.64211426      16.41702924      20.74951705      -0.06411772      -0.01476754      -0.01181005
H        8.82505577      14.85425093      20.46747939      -0.05182680       0.13782035      -0.00700863
H       11.81228441      12.25680587      25.63042995       0.08601866      -0.09304389       0.03315980
H       14.22026407      12.00199806      24.97940524       0.02416380      -0.02551480       0.02993646
H       15.14063709      13.57736350      23.27821512       0.02364344       0.03107771       0.00879925
H       11.92583535      14.30647715      20.76573890       0.11715178       0.22569818      -0.21480542
H       12.10609105      15.27852592      19.29504336      -0.03864058      -0.07161243       0.19129036
H       12.86505282      12.94532385      18.90811603      -0.00528361      -0.09516809      -0.05915178
H       14.23486751      14.05685564      18.77172588       0.02827454      -0.03910989      -0.02529999
H       14.02569248      13.08458503      20.23186014       0.01109297      -0.02155816       0.00902077
H       15.59602229      15.71900910      24.20492413       0.11286038       0.08914884      -0.00180924
H       16.65228782      16.91842772      23.45074098       0.00854456      -0.14088392       0.08863836
H       15.46286538      16.62388274      26.39464994      -0.02395550      -0.08070235       0.06315891
H       16.76417740      17.70878804      25.89770579       0.06091823      -0.03635978       0.06480576
H       15.30894657      18.36076549      26.65667842      -0.00119774       0.05891621       0.09670100
H       13.27107434      16.58311478      25.03319810      -0.05302266      -0.03288161       0.03061960
H       13.13382973      18.28581323      25.48155075      -0.04900497       0.03973551       0.06437949
H       13.02949566      17.80745145      23.78551403      -0.09292454      -0.03708999      -0.03455756
H       14.84577801      19.91794417      24.65710698       0.06970770      -0.18270962      -0.11077910
H       14.95844533      19.24290370      23.01938939       0.05100476       0.02970528       0.17771229
H       19.09552505      19.74305755      23.76134665      -0.06639092       0.21290108       0.05991689
H       18.59435338      22.59219237      23.32244007       0.17967977      -0.19169496      -0.06332908
H       19.54905628      21.99811209      20.83359182       0.32443332      -0.17265509      -0.02730869
H       22.24880262      21.66477852      19.71277019      -0.15089678       0.13118110      -0.14098891
H       22.74411527      22.86965009      17.97531052      -0.27727573       0.03606412      -0.15459243
H       20.45863178      24.17970279      16.43466211       0.11147662      -0.02512395       0.03998976
H       22.27485096      25.39768980      15.27106520       0.03880661       0.05020257      -0.06089942
H       23.49115166      24.53297113      16.21286659       0.08888199       0.00826228      -0.00376784
H       22.51614089      23.66685907      15.03171583       0.04160802      -0.04230780      -0.08934545
H       20.70271376      25.18339185      18.63076679       0.00604108       0.04778194       0.03298304
H       22.45663923      25.27751960      18.45426516       0.10032130       0.03347375       0.01016093
H       21.41021486      26.26996598      17.43639780       0.00662052       0.09605477       0.01871540
H       24.70038635      19.05089172      16.52484403      -0.11738021      -0.08842257      -0.00484631
H       23.40719691      18.20264300      17.37381109       0.04784164       0.10553305      -0.08280271
H       22.94177956      16.80703530      15.39473648       0.14704824       0.01578792      -0.02277408
H       24.67975798      16.69304708      15.78227485      -0.22955521       0.11550517      -0.10660185
H       29.62617160      19.69191082      10.94627083      -0.03492380       0.06408558       0.04173651
H       28.48299036      21.04446566      11.04593352       0.00172681      -0.07448572       0.01600684
H       28.17672961      19.53550738      11.94322323       0.11079971       0.06709648      -0.03609151
H       27.90505752      19.41576966       7.79786292       0.03591909       0.04632611      -0.07086252
H       28.23388977      20.99282897       8.56206542       0.00222223      -0.07503368      -0.03529978
H       29.44940758      19.70506487       8.59469522      -0.05628712       0.04589608      -0.06706307
H       24.79534009      18.16212195       9.18871458      -0.00989951       0.03841797      -0.05686580
H       25.77589379      18.97077779       7.96728074       0.00231674      -0.00020146      -0.06042270
H       26.39983509      17.53427126       8.80188635       0.01584895      -0.03148375      -0.00867387
H       26.09344508      21.31526236      10.83541583      -0.01917291       0.03037871      -0.00936220
H       25.96776085      21.22142531       9.07055952      -0.01504980       0.04183439      -0.04797431
H       24.66785750      20.59187028      10.08586059      -0.05809065       0.04351885       0.00618505
H       23.57023647      19.00631128      12.54011763      -0.13066498      -0.07806039       0.18588754
H       22.29277230      18.21040693      13.49569758       0.12395599       0.10571857      -0.09431033
H       22.34911141      20.62685620      14.00375570       0.03321797       0.06609641       0.04991351
H       24.05637786      20.51533069      14.47205606      -0.03331507       0.00823017      -0.03360795
H       20.41867324      20.63924293      15.35372369       0.08406097       0.02475425       0.01079017
H       19.67410355      21.87980926      16.35036939       0.01911278       0.00488456      -0.10241561
H       20.64569876      22.34811622      14.94510110      -0.05617522       0.01007634      -0.05945856
H       21.20488318      19.45179924      20.59053646      -0.06759872       0.00044129       0.12656247
H       19.98175787      19.63873530      21.85550756       0.03798677      -0.04590199       0.00555920
H       18.95067463      18.40303500      20.15460887       0.02178804       0.22772576      -0.01821205
H       18.07770894      21.26830073      19.55800848       0.01672989      -0.19101836       0.19088049
H       17.49351631      20.33641781      20.94970795       0.00333608       0.02942642      -0.10606257
H       16.74676117      19.25960802      16.97928131       0.04226300       0.07692389       0.02790738
H       17.63280294      20.73236732      17.42411002      -0.02336820      -0.12586583      -0.04975127
H       19.21782810      18.93777442      16.68234766      -0.08889161      -0.05383607       0.03142231
H       18.55679049      17.85869283      17.94222564       0.00798046       0.12953001      -0.11165257
H       22.11424393      22.36495775      24.41853039      -0.20717084       0.03990487       0.03449323
H       20.62718259      23.25015509      24.84630083       0.06519359      -0.05114598      -0.01200784
H       20.98520644      21.46665001      26.51629799       0.03672275      -0.04808462       0.00410524
H       21.12074361      20.25532040      25.23393517       0.04797748       0.03687091       0.04214788
H       18.63207193      21.92964990      25.84877203      -0.03209473      -0.06733574      -0.01711895
H       18.82578878      20.19890043      26.17386534      -0.04210986       0.03374719       0.02571504
H       13.50539142      16.78444155      18.15766016      -0.03093656       0.00315293      -0.03726228
H       15.03296185      18.56138951      17.56192195       0.00355800       0.01693931       0.00142579
H       16.77369875      18.50835281      21.48997747       0.02294034       0.01664970      -0.04881297
