151
Properties=species:S:1:pos:R:3:MACE_forces:R:3 energy:=T -221.332643508076=T gnorm:=T 0.008835602385=T xtb:=T 6.7.1=T (edcfbbe)=T MACE_energy=-90873.3673455285 pbc="F F F"
C       10.02179075      16.45519666      23.98621017       0.03094319      -0.23330486      -0.37815084
N       11.28590281      13.97115954      24.47115927      -0.24381046       0.11105936       0.07590984
O       10.05523174      14.97566406      22.01512610      -0.01503283      -0.01796610       0.17559375
C       10.84968887      15.74759475      22.91364651       0.03263580       0.25214820       0.00211556
N       13.40442614      15.64997596      20.88493743      -0.12832341       0.11366781       0.21769012
O       16.73350389      19.38135012      24.02466654       0.01599037      -0.78194735      -0.00906565
C        9.20994262      15.72268122      21.16626780       0.12681519      -0.04931901       0.13960244
N       19.08433597      21.70629552      23.19722200      -0.28384580       0.24190071      -0.00272682
O       26.56416899      17.12614821      14.01243823      -0.62553054       0.48526892      -0.32423717
C       11.81268829      14.75803168      23.54422234       0.24965492       0.10237676      -0.28890132
N       20.46030138      21.95556673      23.24982738      -0.48517312       0.13287102       0.92560232
O       23.45961659      20.78337851      17.75563011      -0.33646048      -0.19033613      -0.40703123
C       12.04077582      13.05918961      25.05896778       0.04094679      -0.13297593       0.04575403
N       21.20839667      21.80521064      19.73609323       0.52210809      -0.23199214       0.46197601
O       19.46500576      22.62682268      18.55747410       0.07775162       0.08597797      -0.04831283
C       13.37597949      12.86741401      24.74389380       0.05906581       0.03053196      -0.02083539
N       21.68841971      21.59692349      16.63984121      -0.32364974       0.39772472       0.01892041
O       19.74400282      19.31298264      18.64545391       0.02340098       0.10365641       0.06966656
C       13.93720936      13.68636466      23.78140629      -0.17452610      -0.01327054       0.00337185
N       24.47081508      18.00531069      14.03875027      -0.42248838       0.07632396       0.16466287
O       22.42693893      22.01271121      22.15061911      -0.49072010      -0.15930741      -0.00697600
C       13.15980534      14.66465463      23.16027881      -0.11890721      -0.29264787       0.25759564
N       27.98230194      19.53972225       9.67904105       0.03236358      -0.05264295       0.06472434
O       16.44497390      21.59594315      24.19861089       0.38662845      -0.33984436      -0.05793992
C       13.79891826      15.56803538      22.19982773       0.23170195       0.22778990       0.23212611
N       16.91781097      19.52181449      19.06153456      -0.03893229       0.24074017      -0.07965196
C       12.60060661      14.68081597      20.18258877      -0.08484708      -0.50623361      -0.19701133
C       13.47694812      13.59700984      19.55671452      -0.11566375       0.29715028       0.04678508
C       14.83592695      16.44419577      22.44598756      -0.12572285      -0.28162052       0.10273278
C       15.54776023      16.64560957      23.74734220      -0.18500422       0.08320921       0.01096251
C       15.00304589      17.78143844      24.64276083       0.23622668       0.18306246       0.04805220
C       15.66337499      17.67728048      26.02071906      -0.04413276       0.06872293      -0.19638660
C       13.48653594      17.67635905      24.79442576       0.24113269       0.09690063      -0.09655984
C       15.31514681      19.15067459      24.02835308      -0.70689176       0.02622233       0.08123927
C       17.15982486      20.61943893      24.12566841      -0.11871002       1.04370703      -0.00184664
C       18.67477406      20.69769930      24.17222156      -0.01584017      -0.01884429       0.28805546
C       21.21778004      21.81396547      22.15206384       0.75347388       0.12142422      -0.98227959
C       20.45726728      21.38980550      20.89441899      -0.16001412       0.01374216       0.03718118
C       20.66434555      22.39560002      18.67121124      -0.16038463       0.14245422      -0.20879038
C       21.67161439      22.73300727      17.56660719       0.02415835       0.25663816       0.08335137
C       21.36236694      24.07310840      16.88446307       0.08275919      -0.12193337       0.14884047
C       22.39705381      24.37887172      15.80388387      -0.11305700      -0.11451148       0.08400659
C       21.37117679      25.17776505      17.94038588      -0.17947358      -0.14245914      -0.05855067
C       22.64039630      20.67858240      16.84006868       0.94241113      -0.41722724       0.49922309
C       22.81198846      19.51718318      15.83778937       0.47532727       0.05179316       0.11621870
C       23.88232405      18.55205028      16.34748375      -0.15237465       0.05130919      -0.08882557
C       24.14176428      17.44385843      15.32877742       0.11772497      -0.19767594       0.39627292
C       25.67891917      17.80212603      13.48455490       0.97758514      -0.88621672       0.56012668
C       25.88836702      18.40113160      12.19030047       0.62203689       0.33823442      -0.98000033
C       26.24605150      18.81766932      11.11805414      -0.50174199      -0.24917665       0.85185457
C       26.53273852      19.33952641       9.78340630      -0.07887434      -0.12203104      -0.31299123
C       28.53799307      20.38606348      10.71404583       0.06330350       0.04895718       0.12728272
C       28.46304476      19.94640324       8.37581689      -0.02280778      -0.00053670       0.02892873
C       26.07387832      18.25446865       8.79242715       0.07011089       0.14370348       0.00767963
C       25.68990206      20.61661406       9.57981507       0.17917024      -0.02666737      -0.00249044
C       23.45321531      18.87033377      13.49310149      -0.13114465       0.29659298      -0.14027443
C       23.18188601      20.04046947      14.44567408      -0.21573051      -0.33968002       0.05381080
C       20.54359198      21.49260323      15.75962157      -0.33959873      -0.01245957      -0.17958635
C       20.24979416      19.86708812      20.93427043      -0.20911431       0.09313144      -0.37508108
C       19.19874353      19.33338854      19.96003462      -0.08710118      -0.00580985       0.26915325
C       17.87935050      20.12575916      19.96068262       0.29117700       0.02554226       0.08477208
C       17.49254005      19.50141062      17.72850224       0.30181797      -0.17263587      -0.13902215
C       18.82145694      18.73564633      17.73930937      -0.17184571      -0.06926242      -0.12464187
C       21.01094783      22.33074049      24.54282887       0.18453964      -0.21309022       0.06498627
C       20.65765454      21.26166338      25.57539370      -0.09178815       0.18644028      -0.06429150
C       19.14367492      21.05087105      25.59597688       0.13737124      -0.19269372      -0.17928877
C       15.11040346      17.10070618      21.20720773      -0.27550847      -0.26986219      -0.50191876
C       14.20339097      16.57161590      20.26194688       0.37405997       0.51078539       0.01755495
C       14.20727708      17.01970299      18.94759023      -0.01802588      -0.07784735      -0.02240581
C       15.11878108      17.98274682      18.58991448       0.01112815      -0.06374314      -0.18002255
C       16.07217673      18.50151079      19.49521716      -0.12571978      -0.00480013       0.14320293
C       16.05765093      18.04818595      20.80894719       0.14336071       0.10020802      -0.04585696
F       21.61486634      18.78934840      15.73572341      -0.14665336      -0.01065014      -0.05631398
H       10.68605596      16.98964932      24.65628465       0.03159275       0.06327158       0.09933170
H        9.33775259      17.16765143      23.53354502      -0.01538957       0.06664230       0.00126748
H        9.46131084      15.71488721      24.54773077      -0.03022720       0.04405800       0.03784676
H       11.41400312      16.49528702      22.33095099      -0.13211374      -0.23483958       0.16255645
H        8.35519302      16.13753777      21.70714878       0.04340781       0.00314605      -0.06103926
H        9.76162004      16.53526177      20.68178814      -0.04890646      -0.01631151      -0.02348946
H        8.85312627      15.02182095      20.41427421      -0.05093336       0.13981390      -0.02349741
H       11.54427816      12.46266854      25.81149411       0.07711494      -0.09928825       0.05030934
H       13.95733658      12.10529706      25.23914947       0.00559846      -0.02645079       0.01029594
H       14.97143708      13.57048043      23.49185965       0.01802311       0.03060598       0.00711766
H       11.89059238      14.23372432      20.88015897       0.12123227       0.21074143      -0.24179794
H       12.03699122      15.20088548      19.40425487      -0.05035468      -0.06435129       0.17430859
H       12.86433435      12.87086003      19.04026473      -0.11197565      -0.17728526      -0.13231166
H       14.17402607      14.03796463      18.85064625       0.07167859      -0.02088185      -0.07544903
H       14.04640963      13.08900863      20.32556407       0.07952163      -0.10759516       0.12319077
H       15.48702671      15.72332271      24.32610891       0.13562500       0.06593989       0.01703139
H       16.59897846      16.85176431      23.54062442       0.02796979      -0.11682203       0.10934152
H       15.34612919      16.76325701      26.51867342       0.01749877      -0.02369169       0.00983456
H       16.74650828      17.66467863      25.92400201       0.02411944      -0.00565691       0.07041719
H       15.37861037      18.52449090      26.64409886       0.01825933       0.00005597       0.04570691
H       13.21561352      16.69205768      25.16799674      -0.04891863      -0.01105335       0.01075538
H       13.12334779      18.42571571      25.49392303      -0.06290401       0.02644111       0.04257989
H       12.99744152      17.82927461      23.83597762      -0.10726779      -0.01693918       0.00275204
H       14.83989868      19.95540433      24.59847622       0.08458963      -0.22243154      -0.11106223
H       14.96000037      19.19718866      22.99457729       0.10478794       0.04010867       0.20226277
H       19.08870830      19.72998149      23.87426851      -0.00315070       0.21504845       0.05863974
H       18.56429341      22.56623660      23.38263276       0.16857231      -0.24120434      -0.08593749
H       19.49574895      21.90491311      20.87468233       0.28082962      -0.16061417      -0.02424072
H       22.20057222      21.60685686      19.75662722      -0.17886858       0.14141638      -0.14529887
H       22.67308039      22.78507504      18.00479994      -0.28273793       0.02726807      -0.13503042
H       20.36135616      24.03075014      16.44822880       0.11781719      -0.01535744       0.05463407
H       22.13086473      25.29941627      15.28814391       0.05192548      -0.00240269      -0.03848381
H       23.38108782      24.51137539      16.25706377      -0.01124558      -0.01124602      -0.05344735
H       22.46400572      23.57542811      15.07303692       0.04107392       0.03768573      -0.04590410
H       20.59677259      25.00453774      18.68330457      -0.00831043       0.05720954       0.03025779
H       22.33370198      25.21748428      18.44659420       0.06788276       0.02756618       0.00946016
H       21.18543694      26.14070916      17.47171402       0.01116762       0.06931210       0.03595255
H       24.79214506      19.11859977      16.54252665      -0.08978120      -0.07224339      -0.01727809
H       23.54721038      18.11929254      17.29034532       0.04440181       0.10779323      -0.05065369
H       23.24523452      16.82361550      15.22531307       0.13830013       0.00931041      -0.02513218
H       24.97845712      16.82055138      15.64851412      -0.21794035       0.08920952      -0.07863950
H       29.62235767      20.27253140      10.70644672      -0.06569798       0.05154084       0.02788765
H       28.30611843      21.45355775      10.57279751       0.00974282      -0.07077656       0.03567762
H       28.16633013      20.06880133      11.68679350       0.13933797       0.10686297      -0.06856436
H       28.07283776      19.28779851       7.60738130       0.04334235       0.04443888      -0.08261729
H       28.20893657      20.98750133       8.12466645      -0.00694098      -0.06289811      -0.03768372
H       29.54879118      19.85668695       8.38013775      -0.03570219       0.04468168      -0.07707415
H       25.09402231      17.88804823       9.08187096      -0.05473334       0.01464516      -0.02341303
H       26.00533150      18.65678516       7.78695544      -0.00146412       0.00515895      -0.10014544
H       26.77566579      17.42633471       8.80543777       0.01511519      -0.03046157       0.01414358
H       25.93338053      21.36311559      10.33200652      -0.02035408       0.02642594      -0.01662025
H       25.87624339      21.03204064       8.59206384      -0.01017028       0.01688464      -0.02387150
H       24.63421710      20.37256280       9.66163066      -0.04775671       0.00657658      -0.00830539
H       23.78250772      19.24364309      12.52350097      -0.21682511      -0.08929326       0.19357883
H       22.53303290      18.29032378      13.36573912       0.11903415       0.10705971      -0.07783069
H       22.37231256      20.64517461      14.04410225       0.02841412       0.10016570       0.02873748
H       24.07386228      20.65833518      14.54552877      -0.01615351       0.01883350      -0.01971373
H       20.40974739      20.48404794      15.39397113       0.12240241       0.05564402      -0.00777221
H       19.65380326      21.76285858      16.32962675       0.05106535       0.00747528      -0.09975830
H       20.64169794      22.17996500      14.91829389      -0.07155833      -0.07482723      -0.00322597
H       21.20182094      19.38299539      20.70701924      -0.07167874       0.00133698       0.12952299
H       19.94316255      19.58374460      21.93818586       0.04422990      -0.05321720       0.00252456
H       18.97450169      18.28837192      20.24381307       0.02471012       0.24955929      -0.03056458
H       18.07486686      21.12859041      19.56876701       0.06111352      -0.17835206       0.22342489
H       17.47692056      20.21419559      20.96752936       0.02489707       0.00152749      -0.08172866
H       16.81956207      19.04667953      17.00711057       0.05096189       0.08405647       0.05284971
H       17.68103563      20.54026935      17.43803673      -0.02385476      -0.16178518      -0.05170829
H       19.30444013      18.75313014      16.76294966      -0.06033341      -0.03456585       0.04126900
H       18.63426784      17.68924833      18.03082713       0.00521918       0.17591435      -0.11244605
H       22.08797072      22.43656135      24.41739813      -0.21264122       0.02678298       0.03636758
H       20.58286667      23.29492141      24.83750828       0.06549364      -0.05011926      -0.01945148
H       21.00872157      21.57623249      26.55664740       0.03382796      -0.04938891       0.01307937
H       21.15512518      20.32528882      25.31252773       0.02728093       0.09940651       0.05527110
H       18.63768384      21.96668712      25.91455862      -0.00771756      -0.12378311      -0.02823905
H       18.87409755      20.24872310      26.28408191      -0.04377730       0.06081097      -0.01583322
H       13.50666530      16.63811667      18.22094479      -0.02784729       0.00204781      -0.06740100
H       15.08515673      18.36069095      17.58125220      -0.01309549       0.03090973       0.00186457
H       16.77011108      18.40238062      21.53720634       0.01643899       0.04599792      -0.04870806
