151
Properties=species:S:1:pos:R:3:MACE_forces:R:3 energy:=T -221.332255099817=T gnorm:=T 0.004850674991=T xtb:=T 6.7.1=T (edcfbbe)=T MACE_energy=-90873.33382363663 pbc="F F F"
C       10.28434022      16.36143773      24.14179716       0.02739585      -0.12533851      -0.38360309
N       11.44864162      13.79129613      24.24518511      -0.27919641       0.10682202       0.07922535
O       10.17899364      15.19773830      21.97948699       0.00410575      -0.02250246       0.17558502
C       11.04738076      15.77939647      22.95138589      -0.01484700       0.23012828       0.05971950
N       13.44956463      15.71523291      20.75162398      -0.18279746       0.12738059       0.20407264
O       16.82600576      19.26465955      24.03269382       0.16049741      -0.74415979      -0.01324101
C        9.42468064      16.12387364      21.22748757       0.14463299      -0.07653075       0.12926465
N       18.96753085      21.79110621      23.10603493      -0.37335231       0.14193392      -0.09457506
O       26.05518199      16.70057214      14.08694341      -0.49118510       0.60404876      -0.38527712
C       11.97493808      14.66484383      23.39974201       0.21848509       0.15139974      -0.32827011
N       20.31575608      22.15620734      23.18603126      -0.46103813       0.12001040       0.89940553
O       23.35933505      20.66517558      17.68189378      -0.35356570      -0.10676299      -0.41721015
C       12.18470324      12.78580269      24.68338380       0.11361853      -0.19750180       0.07921478
N       21.21685997      21.94594169      19.69604423       0.48962768      -0.20774655       0.54202532
O       19.54621603      22.86365610      18.48370765       0.08409903       0.08123737      -0.07955662
C       13.50209715      12.58883386      24.30079386       0.00133716       0.05003095      -0.01634463
N       21.66186339      21.64275089      16.58281641      -0.30214881       0.44562582       0.03774802
O       19.64116936      19.55609007      18.59544606       0.01720303       0.10111388       0.11623509
C       14.06066201      13.49446358      23.41755761      -0.15012192       0.00754519      -0.01602386
N       24.03263787      17.73010173      14.02828707      -0.43112441       0.06158201       0.06059198
O       22.30884393      22.32171722      22.14730249      -0.49545515      -0.21905108      -0.01656375
C       13.29896813      14.56243206      22.94415141      -0.10579785      -0.36732150       0.24102281
N       27.90288688      19.39792969      10.04703236       0.01841715      -0.04501481       0.04857446
O       16.31803684      21.44810444      24.05143186       0.53249471      -0.42385479      -0.04671274
C       13.91196748      15.53642811      22.03549152       0.27197175       0.22931524       0.18211261
N       16.81868513      19.76786936      19.05337671      -0.01713052       0.24976095       0.00201392
C       12.61766806      14.78630687      20.02722785      -0.10911383      -0.48790432      -0.18838331
C       13.43303602      13.59335849      19.53023565      -0.11833165       0.20976773       0.00452166
C       14.95722329      16.39857781      22.29401187      -0.11998808      -0.32764892       0.10052086
C       15.77426164      16.47050603      23.54606101      -0.16241086       0.08903180       0.08433386
C       15.29440991      17.46870415      24.62285878       0.24107265       0.18680118      -0.00258890
C       16.14276052      17.27274073      25.88281895      -0.07851943       0.06393068      -0.22448791
C       13.82229145      17.23917943      24.95908759       0.21386794       0.14161730      -0.10685693
C       15.43720629      18.91094510      24.12440925      -0.65378915       0.00091153       0.12336170
C       17.12824619      20.54445808      24.04407178      -0.22740622       1.14222148      -0.11660816
C       18.62785000      20.77435893      24.09813796      -0.06281451      -0.03220980       0.35271650
C       21.11619283      22.04528308      22.11391891       0.66290572       0.17435584      -0.88396323
C       20.41617490      21.57833037      20.83692122      -0.11148641       0.04183320      -0.07302629
C       20.72444914      22.54897043      18.61163089      -0.17828199       0.18108746      -0.21060573
C       21.76377602      22.77504586      17.50762274       0.07007831       0.22611794       0.11501049
C       21.61433618      24.13997883      16.82214567       0.07392188      -0.11679264       0.15798590
C       22.67800036      24.30980836      15.73960428      -0.23573287      -0.10113394       0.11637335
C       21.76122746      25.23726247      17.87563310      -0.20198314      -0.15542825      -0.05688942
C       22.51838504      20.63428525      16.78036161       0.82485355      -0.45183091       0.46169648
C       22.56045573      19.45226389      15.79106460       0.58399001       0.05953732       0.17103614
C       23.49928680      18.36732596      16.32123642      -0.18527627       0.00917952      -0.10594505
C       23.62147912      17.22164747      15.31689160       0.11202733      -0.19955467       0.44426454
C       25.25694515      17.46344229      13.53895945       0.67576317      -1.03743994       0.69725349
C       25.58265118      18.11018295      12.29423547       0.79781083       0.32091681      -0.88579486
C       26.04534761      18.59104475      11.29137835      -0.60198909      -0.24270395       0.73723978
C       26.44124600      19.24038183      10.04643763       0.01145268      -0.03771835      -0.36066308
C       28.43863879      19.94977693      11.27425305       0.03561480       0.05585108       0.17148040
C       28.44085274      20.08947881       8.89368377      -0.02129391      -0.04876700       0.06290981
C       26.02109969      18.29120929       8.91029694       0.03592084       0.06777611       0.01097022
C       25.65276310      20.56380308       9.93896381       0.18721332      -0.09637490       0.02426223
C       23.12830716      18.70396995      13.46716354      -0.06758432       0.35237260      -0.07963469
C       23.00982391      19.91317047      14.40135906      -0.22217060      -0.28896111       0.00153356
C       20.51235076      21.66031104      15.70142802      -0.19310721      -0.03496074      -0.11814971
C       20.18025382      20.06010065      20.88867337      -0.20307460       0.06635583      -0.36307168
C       19.11587729      19.54766013      19.91812019      -0.11631960      -0.06191992       0.26637394
C       17.79593387      20.33967958      19.95669699       0.25730111      -0.04877469       0.07645733
C       17.37838608      19.78028362      17.71300156       0.32711506      -0.14834193      -0.10435770
C       18.70223982      19.00813675      17.68965843      -0.18316971      -0.01342717      -0.15877314
C       20.79371503      22.61683914      24.47995530       0.26076324      -0.15227665       0.03173625
C       20.50815211      21.55347233      25.53941813      -0.17831112       0.22240668      -0.04781932
C       19.02048201      21.20449553      25.52356256       0.17087958      -0.21613436      -0.16179664
C       15.15817206      17.15566117      21.09897412      -0.30301416      -0.19287251      -0.48056929
C       14.21123010      16.68672837      20.16044145       0.40878339       0.49150803       0.11016705
C       14.14590885      17.23361507      18.88546007      -0.01950962      -0.05411174      -0.11976399
C       15.02547124      18.23612283      18.56098337      -0.03710427      -0.09313551      -0.14946690
C       16.01107763      18.70279054      19.45966261      -0.07623311       0.00732592       0.14546293
C       16.06654497      18.15426164      20.73453839       0.13265806       0.11353782      -0.06182724
F       21.28856066      18.86995955      15.67252428      -0.20951176      -0.09014478      -0.04385845
H       10.98914485      16.69408098      24.89722740      -0.00508767       0.05640331       0.07733293
H        9.67819964      17.20763207      23.83030425      -0.00139924       0.05871156       0.02262506
H        9.64777995      15.59054605      24.56433134       0.00354488       0.01275893       0.04422336
H       11.63683967      16.57270023      22.46288170      -0.12260912      -0.22835669       0.12384784
H        8.65874198      16.61203378      21.83515370       0.02072693       0.01146406      -0.06422042
H       10.07514363      16.88557035      20.78263028      -0.06253656      -0.01257415      -0.01087497
H        8.94626532      15.54474068      20.44119085      -0.03781616       0.13146359      -0.01521056
H       11.68952626      12.11533128      25.37222872       0.07548941      -0.09931328       0.03369540
H       14.06908374      11.75373998      24.67892978       0.01641668      -0.03944494       0.02379387
H       15.07914126      13.37752097      23.07653245       0.02145795       0.02745677      -0.00290108
H       11.80727608      14.44288108      20.67389054       0.17527472       0.19288570      -0.21402461
H       12.18199147      15.31912186      19.17906498      -0.05115172      -0.06947147       0.21219489
H       12.80541961      12.93548844      18.93714903      -0.01434600      -0.10993253      -0.05410331
H       14.26407720      13.93533982      18.91837782       0.04781363      -0.03832383      -0.04233717
H       13.82821506      13.03153837      20.37310050       0.01235813      -0.03480425       0.01184358
H       15.79326594      15.48239891      24.00905082       0.12239716       0.08016972      -0.00300780
H       16.79750121      16.73728914      23.27369216       0.01227609      -0.13588702       0.07385908
H       15.97384358      16.28089871      26.29363909      -0.00880150      -0.06830748       0.05227918
H       17.19940309      17.37737173      25.65153664       0.04714171      -0.01257057       0.05395274
H       15.87741316      18.00790075      26.63882267       0.00357766       0.04584660       0.10098567
H       13.65991096      16.20378036      25.24675452      -0.04907328      -0.05019335       0.01384581
H       13.51679365      17.87959971      25.78296576      -0.04337761       0.03539981       0.06209681
H       13.19951716      17.46093487      24.09729206      -0.09402978      -0.02230829      -0.02356111
H       14.95507199      19.61229970      24.81335273       0.07133422      -0.18888875      -0.13924611
H       14.97925219      19.02988557      23.13788569       0.07908007       0.02654946       0.18133075
H       19.14139018      19.84252820      23.84168048      -0.08071629       0.22383478       0.03424165
H       18.36991050      22.60548512      23.25988055       0.20109866      -0.17033300      -0.05502458
H       19.46679103      22.11048702      20.75683822       0.30412594      -0.16948590       0.00497737
H       22.19248832      21.68221238      19.72535489      -0.15941085       0.10600223      -0.12615761
H       22.76349168      22.71778859      17.94921748      -0.26859307       0.05971739      -0.15990523
H       20.61469080      24.21837038      16.38873292       0.10407034      -0.03854599       0.04264523
H       22.56688819      25.27758446      15.25908825       0.03840230       0.05252003      -0.06785036
H       23.66973803      24.25654262      16.18324474       0.08764026       0.00569404      -0.00255199
H       22.60684767      23.53645639      14.98047532       0.03707933      -0.04421984      -0.08977583
H       20.97079385      25.16309868      18.61863672       0.00498929       0.05787347       0.02698823
H       22.72026683      25.15625087      18.38272794       0.08564133       0.02027571       0.01249783
H       21.69953647      26.21447029      17.40491857       0.01314992       0.08333755       0.02494759
H       24.47376100      18.81859714      16.50741644      -0.11789441      -0.08173575      -0.00781862
H       23.11228027      17.99585437      17.27030641       0.05142178       0.10572962      -0.06687552
H       22.65478034      16.72043554      15.20791139       0.14852338       0.00609418      -0.01597685
H       24.36893221      16.50112811      15.65227784      -0.21077802       0.12801035      -0.10778332
H       29.52600558      19.93064301      11.21301243      -0.04110215       0.02091649       0.03633479
H       28.12545447      20.98966907      11.46153089       0.05460055      -0.08170914      -0.01843458
H       28.13048254      19.33403978      12.11824291       0.09889859       0.12271093      -0.03587131
H       28.06511732      19.64110058       7.97992834       0.01810695       0.05725696      -0.08874699
H       28.21944284      21.16609589       8.88877456      -0.00343089      -0.02774677      -0.04609364
H       29.52342900      19.96949428       8.90887864      -0.04006785       0.04165939      -0.07157723
H       24.99267998      17.97286662       9.06213936      -0.00834790       0.02970869      -0.06202152
H       26.08876850      18.78675149       7.94657258       0.00071627       0.01455390      -0.06876811
H       26.66398673      17.41552779       8.91176068      -0.00264707       0.00164693      -0.00376663
H       25.88450666      21.21696661      10.77654032      -0.02341230       0.03898472      -0.00919831
H       25.90082146      21.07129846       9.01085312      -0.01472447       0.02701986      -0.04318016
H       24.58705907      20.35419203       9.94615350      -0.05620405       0.03663156       0.00307410
H       23.49457779      19.01559623      12.48916770      -0.14603024      -0.08152495       0.15853194
H       22.14451647      18.23702963      13.35528085       0.12050648       0.09937395      -0.08116776
H       22.29802359      20.62347837      13.98522185       0.03560607       0.05965741       0.05545120
H       23.97903477      20.40204570      14.50643411      -0.04493266       0.00802127      -0.03855752
H       20.31946558      20.68614723      15.27534972       0.08612140       0.02367926       0.01644636
H       19.64172692      21.95647601      16.28537462       0.01414057       0.00803525      -0.10000208
H       20.66146636      22.38301532      14.90138673      -0.05404059       0.00609545      -0.05317080
H       21.12221325      19.55853937      20.65675189      -0.06258717      -0.00082877       0.11937484
H       19.87303429      19.78085820      21.89212021       0.04747848      -0.04897862       0.00041975
H       18.89524322      18.49646843      20.18143329       0.02122819       0.23890409      -0.02499297
H       17.98622746      21.35346898      19.59129122       0.02405019      -0.18724528       0.18255206
H       17.40514834      20.40052754      20.97113992       0.01409994       0.02516300      -0.11260927
H       16.69582026      19.34133863      16.99115721       0.04174459       0.08043302       0.03150380
H       17.56459102      20.82447815      17.44280673      -0.02064065      -0.14296156      -0.04542231
H       19.16777868      19.04765113      16.70729435      -0.08813727      -0.06087047       0.04417815
H       18.51028141      17.95640006      17.95766981       0.00730322       0.13684404      -0.10823373
H       21.86012426      22.81544296      24.38024584      -0.19782092       0.01513297       0.02850398
H       20.27185944      23.54648866      24.73008956       0.07515234      -0.04101617      -0.00964560
H       20.79613576      21.93110911      26.51902326       0.05306923      -0.04727718       0.00732455
H       21.09814233      20.66152211      25.32398696       0.04730322       0.03845512       0.03307005
H       18.42404068      22.07672624      25.80226887      -0.00211496      -0.08883190      -0.01616758
H       18.80443508      20.39905017      26.22474851      -0.04199655       0.03116876       0.02119754
H       13.41784767      16.89904571      18.16238723      -0.02927730       0.01455490      -0.03513650
H       14.94067204      18.69208178      17.58821949      -0.00469094       0.02893841      -0.00061654
H       16.79987588      18.47900995      21.45526552       0.03207786       0.02391748      -0.05178019
