151
Properties=species:S:1:pos:R:3:MACE_forces:R:3 energy:=T -221.332325571325=T gnorm:=T 0.003778277547=T xtb:=T 6.7.1=T (edcfbbe)=T MACE_energy=-90873.33582666589 pbc="F F F"
C       10.20235407      16.42973584      24.09621965       0.02439521      -0.15983546      -0.36618408
N       11.42916516      13.89939151      24.39099557      -0.28946099       0.11019078       0.07403518
O       10.11490170      15.08311512      22.04195622       0.00951574      -0.01284421       0.17342550
C       10.97343249      15.77015509      22.95213131      -0.01239876       0.25245039       0.03758990
N       13.40291320      15.69171041      20.79251747      -0.18215269       0.11479689       0.21050088
O       16.78365885      19.34545413      23.88060114       0.06312763      -0.76960836      -0.12688271
C        9.32477832      15.91970555      21.22534939       0.15383829      -0.07572343       0.11913603
N       19.06955513      21.73522255      23.11206143      -0.35809019       0.13997952      -0.09799214
O       26.40894871      16.86090149      14.23630024      -0.53683087       0.52414293      -0.40580784
C       11.93346906      14.72134520      23.48251208       0.21765784       0.12056224      -0.33583332
N       20.44697386      21.98239334      23.13775921      -0.42823053       0.16153586       0.92014450
O       23.53069167      20.79725550      17.67630575      -0.35160246      -0.15575596      -0.39496049
C       12.18828860      12.94693024      24.90161913       0.12574546      -0.18845581       0.08233226
N       21.19756619      21.86205095      19.61685887       0.51150944      -0.27116258       0.55347264
O       19.51923528      22.80032874      18.43217576       0.05580970       0.08784182      -0.08532764
C       13.50806533      12.74915521      24.52666145      -0.02635610       0.04601448      -0.00806898
N       21.73713604      21.58448016      16.57626293      -0.34560265       0.42417098       0.03550983
O       19.56283518      19.48449160      18.48802522       0.00233640       0.09094296       0.09732611
C       14.04394338      13.60123892      23.57891158      -0.14116139      -0.00514570      -0.03521609
N       24.29416749      17.68394754      14.17498601      -0.45282788       0.00262938       0.03853448
O       22.40299838      22.01450892      22.02286176      -0.53192629      -0.15679350      -0.00360180
C       13.26062217      14.61944135      23.03481455      -0.11012980      -0.36100138       0.27064362
N       27.84635053      19.66652946      10.07291800       0.02468884      -0.03716344       0.05111209
O       16.45108772      21.52324343      24.30354771       0.44636825      -0.33314899      -0.14598220
C       13.86501918      15.55609989      22.08257315       0.28086862       0.24390040       0.15305961
N       16.75199882      19.72568486      18.99243798      -0.01922368       0.23013216      -0.00594752
C       12.57551139      14.73759818      20.09691882      -0.06164976      -0.48830391      -0.19744124
C       13.41624934      13.60416259      19.50946426      -0.11859861       0.20603871       0.03312002
C       14.90362549      16.43364295      22.31417973      -0.10898811      -0.33561324       0.12129192
C       15.69399387      16.57361332      23.57700636      -0.17801769       0.09829995       0.06360831
C       15.19141430      17.64112474      24.57518662       0.22836559       0.17502135      -0.01372924
C       15.98685307      17.50446172      25.87644881      -0.04518831       0.08830203      -0.22078614
C       13.70295477      17.45574819      24.86215346       0.22152567       0.12449277      -0.10646365
C       15.38290304      19.05099197      24.00178092      -0.62860687      -0.00440653       0.18237074
C       17.18264297      20.58150181      24.08757798      -0.04316245       1.04320345       0.05257278
C       18.69878213      20.68964051      24.06548554      -0.04383311      -0.03652980       0.35893366
C       21.18915071      21.84548030      22.02854517       0.64725136       0.15968796      -0.88144839
C       20.41434318      21.47154984      20.76420068      -0.07667856       0.04894745      -0.09197096
C       20.69963721      22.49354648      18.55145679      -0.17612880       0.18912899      -0.22103023
C       21.74420281      22.75578384      17.45772696       0.05465642       0.24458349       0.09961720
C       21.51766557      24.07805563      16.71252136       0.07143384      -0.09640048       0.16686531
C       22.60073210      24.28214720      15.65493720      -0.24073118      -0.10042993       0.11579591
C       21.54644508      25.22945597      17.71687661      -0.20374912      -0.19767388      -0.07761171
C       22.67466947      20.65741061      16.79959140       0.87128758      -0.39782055       0.43951489
C       22.76953785      19.41998365      15.88288023       0.49466113       0.08536017       0.15258218
C       23.80722207      18.44284155      16.43908495      -0.17447238      -0.00161122      -0.07502294
C       23.97174463      17.23851405      15.51120132       0.13668830      -0.15540122       0.45720936
C       25.53149441      17.51650258      13.67208649       0.78730464      -0.91013965       0.73342248
C       25.76971525      18.14942049      12.40072697       0.67179965       0.39117866      -0.91774781
C       26.12840277      18.67632105      11.37904654      -0.45555844      -0.31572748       0.76834125
C       26.40924297      19.36910823      10.12561718      -0.05146835      -0.02051504      -0.32973857
C       28.36612517      20.32007655      11.25649861       0.04115661       0.04238044       0.12736911
C       28.28383756      20.35899263       8.87898212      -0.01384965      -0.03081442       0.02927000
C       26.03537683      18.39345577       8.99483261       0.02449868       0.10323850       0.00834734
C       25.49076389      20.60980400      10.06568314       0.20757454      -0.08049283       0.03840522
C       23.29481891      18.54719318      13.59338964      -0.10037258       0.33146143      -0.08385413
C       23.13104559      19.80936425      14.44654486      -0.20366555      -0.26125134       0.02440139
C       20.59190918      21.48122395      15.69631209      -0.22350908      -0.03797866      -0.16391598
C       20.14559720      19.95824538      20.77815420      -0.23432422       0.04822082      -0.36498375
C       19.05736302      19.47706386      19.81762118      -0.09195040      -0.04672129       0.29733086
C       17.75191470      20.29032431      19.87764821       0.26101842      -0.06321744       0.05215832
C       17.28806134      19.72775997      17.64199329       0.31845444      -0.13325507      -0.12602062
C       18.60538856      18.94438441      17.59642188      -0.13580691      -0.00476440      -0.10986067
C       21.02367751      22.33210101      24.42648244       0.25647796      -0.17316482       0.01865147
C       20.71202335      21.23113155      25.43839555      -0.17300960       0.21994428      -0.02782984
C       19.20303029      20.99381305      25.48676565       0.16307355      -0.21262317      -0.17471375
C       15.10299957      17.15288244      21.09641595      -0.30500668      -0.23373991      -0.47535175
C       14.15636396      16.65330975      20.17352162       0.41905790       0.51170314       0.10490871
C       14.08090418      17.17669352      18.88925318      -0.02373941      -0.05791258      -0.12068694
C       14.95267197      18.17949328      18.54017965      -0.04669083      -0.10225059      -0.18176876
C       15.94625082      18.66581444      19.41939069      -0.07382203       0.01716933       0.17649754
C       16.00964601      18.14171640      20.70446632       0.13209687       0.10498292      -0.06112258
F       21.53579949      18.74619651      15.86839465      -0.14900797      -0.07490539      -0.04710282
H       10.90211121      16.84809632      24.81264812      -0.00157377       0.06004338       0.06976526
H        9.56889719      17.22770629      23.71888580      -0.00321524       0.06069651       0.02395659
H        9.59211019      15.68026658      24.59051259       0.00800416       0.01853661       0.03695129
H       11.53615205      16.53649101      22.39373994      -0.11694736      -0.22973515       0.14633996
H        8.58128474      16.47076141      21.80560196       0.00543404       0.00502324      -0.05833712
H        9.95158419      16.62919373      20.67310854      -0.06087112      -0.00506738      -0.00429884
H        8.81790052      15.25643861      20.52830909      -0.03137572       0.13333553      -0.03108270
H       11.71005301      12.32106858      25.64274249       0.08140936      -0.09405043       0.03379008
H       14.09330694      11.95554867      24.96231690       0.02098064      -0.03205041       0.01613348
H       15.06352852      13.48068635      23.24250811       0.02494281       0.03461063       0.00107313
H       11.83588771      14.33156320      20.78962363       0.12373104       0.21739336      -0.21035781
H       12.04888736      15.26315141      19.29707513      -0.04016404      -0.05954771       0.19524792
H       12.78127213      12.92306515      18.95127714      -0.00929139      -0.10583133      -0.05897805
H       14.17717450      14.00499520      18.84371552       0.03276735      -0.04229376      -0.03623094
H       13.90803845      13.04975671      20.30552344       0.01366090      -0.02493528       0.01215649
H       15.69076077      15.61670045      24.10087670       0.12718039       0.07899070      -0.00531912
H       16.72585525      16.81628348      23.31631348       0.01731462      -0.13325764       0.08133796
H       15.79275954      16.53743897      26.33232445      -0.01289022      -0.06577874       0.05544921
H       17.05369487      17.58646166      25.68121958       0.02960013      -0.01514287       0.05513120
H       15.70157172      18.28165810      26.58221716       0.00093884       0.03942698       0.08803527
H       13.51626405      16.45325144      25.23883237      -0.05007629      -0.04305808       0.01262213
H       13.36531551      18.17415307      25.60478010      -0.04494498       0.04022998       0.07404833
H       13.12440541      17.59683157      23.95358666      -0.09497184      -0.01236514      -0.01367257
H       14.93266758      19.80390275      24.65625740       0.05513290      -0.21036361      -0.15107625
H       14.92860786      19.12919417      23.01049612       0.08141233       0.04496959       0.16088308
H       19.11567998      19.73915428      23.71950524      -0.06082354       0.22537416       0.06444052
H       18.55646939      22.58678309      23.34685813       0.18924566      -0.17978730      -0.06656488
H       19.47856186      22.03212638      20.74049869       0.28668931      -0.17947880      -0.00219959
H       22.17962652      21.61903174      19.64877257      -0.14716328       0.12369191      -0.11675659
H       22.73550941      22.78381018      17.92131522      -0.27442198       0.03219538      -0.17219470
H       20.53052773      24.06326348      16.24468513       0.10366355      -0.02530365       0.05360860
H       22.43371036      25.21909507      15.13065668       0.03843437       0.04068679      -0.06751849
H       23.57917676      24.32216931      16.12862972       0.08392217       0.00581049      -0.00152201
H       22.61047723      23.47549126      14.92801218       0.04143596      -0.05534447      -0.09128317
H       20.73764632      25.12925023      18.43502274      -0.01177440       0.05541737       0.04448898
H       22.49020417      25.24511978      18.25567992       0.11444613       0.03081813       0.02944016
H       21.42772826      26.17511869      17.19667667       0.01498424       0.10896057       0.01168436
H       24.75323346      18.97489814      16.54462413      -0.11623135      -0.10283016       0.00791066
H       23.49406375      18.11410182      17.43014824       0.03153524       0.10769305      -0.08021924
H       23.04000989      16.66569356      15.47942197       0.15283650       0.01539533      -0.02573059
H       24.78210882      16.59762061      15.86193532      -0.22539725       0.10620445      -0.10499836
H       29.45397207      20.31645365      11.19807223      -0.03249671       0.04353948       0.04125518
H       28.03279196      21.36465907      11.35912803       0.03216243      -0.06720378       0.00158224
H       28.06835591      19.76600412      12.14503718       0.09249650       0.10119767      -0.03970593
H       27.89725945      19.86461600       7.99335515       0.02883847       0.05084736      -0.06634909
H       27.98889694      21.41897219       8.86078738      -0.00105816      -0.05971428      -0.04855158
H       29.37236526      20.31220948       8.84604172      -0.05912884       0.05159612      -0.06660389
H       25.08467763      17.91845504       9.22168917      -0.02665867       0.02794813      -0.06303828
H       25.93964143      18.91752526       8.04858975       0.00696022       0.00597007      -0.07290400
H       26.79927655      17.62671004       8.90962460       0.00765519      -0.02739676      -0.00267510
H       25.69469297      21.27987027      10.89782549      -0.02568065       0.01550982      -0.01443984
H       25.64573769      21.14309673       9.13189621      -0.01452277       0.03268695      -0.05045311
H       24.45254087      20.29506722      10.12034260      -0.06341766       0.03943210      -0.00953345
H       23.59010697      18.81112336      12.57874947      -0.12825991      -0.07681880       0.16272250
H       22.34502483      18.00348238      13.56628859       0.11910527       0.10549987      -0.09284196
H       22.36221784      20.44487967      14.01109991       0.03577591       0.04981104       0.05806196
H       24.07100678      20.36302998      14.47762532      -0.06063183      -0.00321023      -0.04302269
H       20.45885332      20.47253336      15.32966524       0.07896670       0.05763176       0.03201459
H       19.70181271      21.75795893      16.26212939       0.04588709      -0.01353731      -0.11663882
H       20.69918949      22.16470022      14.85308362      -0.05650007      -0.03647704       0.00200555
H       21.07527290      19.44565977      20.52110928      -0.06629383      -0.00093712       0.12895166
H       19.85119456      19.66212628      21.78151417       0.03737977      -0.04676376      -0.00057960
H       18.82233903      18.42828278      20.07833702       0.01619790       0.23883702      -0.02696182
H       17.95383265      21.30005673      19.50704388       0.02327088      -0.18272245       0.17822683
H       17.37806746      20.35790143      20.89769706       0.01495070       0.03038009      -0.09040738
H       16.58736831      19.29311864      16.93515061       0.04415453       0.08010939       0.02757620
H       17.47718376      20.76970021      17.36439809      -0.02172351      -0.15016357      -0.04080202
H       19.05995164      18.97896512      16.60769352      -0.09259832      -0.05201742       0.03189564
H       18.40856444      17.89463854      17.86827100       0.01346031       0.13440907      -0.11283714
H       22.09618338      22.45624529      24.28045742      -0.20555671       0.03194561       0.03485679
H       20.58768176      23.28170112      24.75391760       0.06818038      -0.05329317      -0.01656634
H       21.07903937      21.52455126      26.42035258       0.04847420      -0.04976057       0.00163379
H       21.21937011      20.31284962      25.13848600       0.05293193       0.04021230       0.03425154
H       18.68987822      21.88369692      25.85794488      -0.01147929      -0.07827554      -0.02828138
H       18.96722680      20.15938823      26.14664819      -0.05070886       0.03338563       0.02828381
H       13.34839024      16.82620079      18.17800439      -0.02564180       0.00834836      -0.03550732
H       14.85324637      18.61633029      17.55977944       0.01017109       0.02759578       0.00387773
H       16.74724509      18.47583784      21.41593844       0.03110560       0.03978296      -0.06205021
