151
Properties=species:S:1:pos:R:3:MACE_forces:R:3 energy:=T -221.332166857163=T gnorm:=T 0.003464028778=T xtb:=T 6.7.1=T (edcfbbe)=T MACE_energy=-90873.33951509681 pbc="F F F"
C       10.18305385      16.34878732      24.06879607       0.03052045      -0.14580044      -0.37599120
N       11.45570898      13.84077615      24.32772634      -0.28784681       0.09864279       0.07053518
O       10.14562689      15.03656612      21.98999897       0.00314765       0.00189593       0.17760461
C       10.97890705      15.72864334      22.92029439      -0.02203163       0.21537990       0.04171189
N       13.45193249      15.72380706      20.77595074      -0.21532011       0.10280521       0.17487091
O       16.80198115      19.31269627      24.08137169       0.13116781      -0.70985670       0.06145575
C        9.31410869      15.86279989      21.20453411       0.14908205      -0.06665905       0.11215996
N       19.09432393      21.72135062      23.07165443      -0.35750761       0.18606432      -0.05734280
O       25.99994196      16.62158650      14.07451643      -0.48684632       0.60300638      -0.41003814
C       11.95371894      14.68806514      23.43924808       0.22286136       0.13101119      -0.33158795
N       20.45978367      22.01079381      23.16224760      -0.45932387       0.07245086       0.88985891
O       23.38750672      20.71230833      17.64421264      -0.34113269      -0.11752637      -0.41712478
C       12.22356982      12.88460521      24.81793266       0.11282156      -0.19569126       0.08686319
N       21.28852405      21.89950911      19.65068929       0.49603741      -0.23682653       0.55294211
O       19.59350565      22.86910659      18.51612747       0.10005881       0.06491637      -0.08370449
C       13.54512849      12.70766484      24.44016163      -0.00394568       0.05221413      -0.01356691
N       21.67780287      21.67832899      16.55490867      -0.28768371       0.42764343       0.02462549
O       19.65618667      19.49436341      18.54976073       0.01925915       0.10779725       0.07786431
C       14.07636970      13.59056645      23.51827691      -0.14762388      -0.00427675      -0.02878176
N       24.01407754      17.71974768      14.02857699      -0.45011782       0.04839344       0.08531741
O       22.44028252      22.16712342      22.09617909      -0.51431595      -0.20330677      -0.01520324
C       13.28463351      14.61475927      22.99815117      -0.11204492      -0.36919129       0.24874804
N       27.92878754      19.35250610      10.08335589       0.02303021      -0.06729481       0.04600854
O       16.42346385      21.50856772      23.84390595       0.45535734      -0.38817352       0.03815721
C       13.88742726      15.57951489      22.07252488       0.29207400       0.23995795       0.20490084
N       16.84699862      19.75344315      19.05557605       0.00265191       0.25069202      -0.01996806
C       12.62755356      14.78216230      20.05882024      -0.04087942      -0.46916647      -0.18935030
C       13.46733217      13.64345994      19.48057531      -0.10093602       0.21413378       0.03607690
C       14.91681639      16.46031105      22.33372061      -0.11103246      -0.32406118       0.09574136
C       15.68559589      16.58650739      23.61095161      -0.16971959       0.08064097       0.07315376
C       15.15077467      17.61921872      24.62957223       0.24940618       0.19062776      -0.00582120
C       15.88416056      17.41709748      25.95846575      -0.05471499       0.07346253      -0.21873022
C       13.64832564      17.45132842      24.84633315       0.23553633       0.13252783      -0.07887043
C       15.39224547      19.04462345      24.12212391      -0.64265184       0.01269967       0.05990366
C       17.17882493      20.56780256      23.96229920      -0.11155016       1.03133341      -0.20811692
C       18.68881608      20.70884721      24.03873075      -0.08005940      -0.02476839       0.30338698
C       21.24015492      21.92279202      22.07368607       0.67446642       0.17676799      -0.88807905
C       20.50786018      21.50645407      20.79711198      -0.11894765       0.07788080      -0.07383355
C       20.77438300      22.54843285      18.60418288      -0.22345316       0.21175843      -0.20909167
C       21.78170534      22.81195343      17.47913922       0.07314857       0.22609773       0.11359809
C       21.57139030      24.17708785      16.81021976       0.07459988      -0.11759794       0.14766705
C       22.58402566      24.39285293      15.68830525      -0.20791168      -0.11684975       0.12504538
C       21.72597205      25.26779423      17.86990104      -0.19651520      -0.14662848      -0.04839455
C       22.53709247      20.67109174      16.75191255       0.80894193      -0.41184408       0.45267973
C       22.56639951      19.47626585      15.77833518       0.55577389       0.03992962       0.14611723
C       23.51013857      18.39737883      16.31129142      -0.18854370      -0.00524693      -0.09449307
C       23.60155719      17.23319377      15.32525354       0.11125233      -0.18513015       0.44450146
C       25.22365888      17.40906729      13.52950477       0.68990413      -0.99053136       0.73326992
C       25.57118757      18.06297790      12.29504087       0.78147329       0.30873083      -0.90863718
C       26.04648958      18.57071745      11.31156693      -0.56478980      -0.28065270       0.72380711
C       26.46261247      19.28005883      10.10626002      -0.05318277       0.00475503      -0.34390959
C       28.53480327      19.78442880      11.32520251       0.06015016       0.02475605       0.15266579
C       28.48823797      20.08869986       8.96926458      -0.01853978      -0.00989619       0.04027159
C       25.96764977      18.44342151       8.91289604       0.06057172       0.09429610       0.01995773
C       25.74966875      20.64965861      10.11884610       0.18566949      -0.11043571      -0.01276765
C       23.11718698      18.69399115      13.45664555      -0.07396240       0.35345790      -0.09347557
C       22.99437213      19.91566091      14.37499868      -0.21689435      -0.29634976       0.02025869
C       20.51340056      21.68147410      15.69304882      -0.23549863      -0.02323008      -0.14239416
C       20.25755455      19.98955752      20.82180071      -0.20948190       0.05465821      -0.34465626
C       19.15583946      19.49760397      19.88152262      -0.10332430      -0.06751221       0.28642114
C       17.84829370      20.30906845      19.94552685       0.24129430      -0.06087545       0.08533322
C       17.38791914      19.76548529      17.70670728       0.29559559      -0.16247639      -0.08430906
C       18.69172233      18.96319248      17.66064186      -0.16195546      -0.00658115      -0.14062230
C       20.96847165      22.40315611      24.46665716       0.25919169      -0.13684797       0.02928588
C       20.60562749      21.33938183      25.50195121      -0.16591388       0.22720694      -0.04499883
C       19.09863172      21.08428418      25.47460812       0.17010415      -0.23465549      -0.16379187
C       15.13994065      17.18894584      21.12540215      -0.29533580      -0.22393675      -0.47217061
C       14.21473847      16.69172194      20.17937263       0.40808116       0.49600684       0.11649225
C       14.17100508      17.21404039      18.89369646      -0.01433990      -0.04021813      -0.12270083
C       15.05300250      18.21433243      18.56521031      -0.03271985      -0.09157595      -0.17076629
C       16.02663521      18.70013701      19.46759143      -0.09117988       0.00143405       0.16199368
C       16.05656718      18.17740147      20.75475484       0.15442480       0.13397204      -0.05191461
F       21.29292455      18.89181972      15.68644445      -0.20254979      -0.07956915      -0.04290538
H       10.86779730      16.75242152      24.80736814      -0.00046608       0.06439638       0.07674894
H        9.54811542      17.15147501      23.70464235      -0.01026485       0.06134820       0.02104149
H        9.57315021      15.57897252      24.53121574       0.00630732       0.02003103       0.04465995
H       11.53057403      16.51610720      22.38119112      -0.10738475      -0.22378704       0.13151725
H        8.53402587      16.34053460      21.80238368       0.02007788       0.00511747      -0.06738602
H        9.90187840      16.63342894      20.69201007      -0.06791241      -0.01827035       0.00026423
H        8.85364367      15.20340781      20.47184965      -0.03717040       0.14434597      -0.01677997
H       11.75032894      12.23722844      25.54372623       0.08276973      -0.09428641       0.02861490
H       14.13675267      11.90701271      24.85335156       0.01976834      -0.03405274       0.02825416
H       15.09860128      13.49007247      23.18323394       0.02344648       0.03390101       0.00308109
H       11.87189740      14.37886730      20.73525262       0.12789491       0.21532799      -0.21490374
H       12.12148422      15.31919911      19.25350932      -0.04175018      -0.06173698       0.19063417
H       12.84110625      12.98646889      18.88534288      -0.01371981      -0.11306480      -0.06164934
H       14.26098698      14.04168042      18.85232808       0.02601238      -0.04290981      -0.03906638
H       13.91747156      13.06412356      20.28354441       0.01530458      -0.02537928       0.00837520
H       15.69830343      15.61653581      24.11035373       0.11188292       0.08193077      -0.00234773
H       16.71553758      16.85783756      23.37040752       0.00605989      -0.14969244       0.08517090
H       15.63482978      16.44514566      26.37571652      -0.00772784      -0.07067670       0.05158560
H       16.95972007      17.46778307      25.81170403       0.04973606      -0.01477662       0.05843523
H       15.59435404      18.18294027      26.67416602      -0.00148899       0.04455931       0.09632169
H       13.42454169      16.42691148      25.13169646      -0.04761820      -0.03437317       0.02468940
H       13.30363248      18.11480489      25.63563846      -0.05076195       0.03666657       0.06700559
H       13.10454687      17.68398764      23.93505696      -0.09239532      -0.02575190      -0.02980301
H       14.92286889      19.78073827      24.78283032       0.06782653      -0.17365941      -0.12300407
H       14.98190278      19.17651584      23.11646066       0.06542122       0.01477114       0.17518854
H       19.14721013      19.75252418      23.76686740      -0.06861504       0.21943066       0.04678131
H       18.53762015      22.56354693      23.22895216       0.18527209      -0.18329863      -0.06059127
H       19.56319799      22.05114766      20.75036989       0.31268581      -0.19094841      -0.00286269
H       22.26662573      21.64197166      19.65683892      -0.16278355       0.09868570      -0.13888292
H       22.79467635      22.77834996      17.89269335      -0.28223478       0.04790308      -0.14536735
H       20.55413812      24.23090600      16.41524038       0.11400182      -0.03910859       0.04489998
H       22.40577632      25.35208034      15.21028463       0.04008404       0.04832131      -0.06483288
H       23.59441729      24.39126973      16.09174231       0.07925409       0.00324033      -0.00448843
H       22.52087495      23.61427923      14.93396020       0.03978884      -0.04187134      -0.09157013
H       20.96243096      25.16642225      18.63735395       0.00667490       0.05917224       0.02444946
H       22.70320398      25.20639736      18.34480052       0.07776963       0.02291503      -0.00119894
H       21.62476836      26.24820703      17.41229461       0.01174689       0.07444807       0.02415552
H       24.49218902      18.84442644      16.46607157      -0.12131025      -0.08128475       0.00049257
H       23.14203820      18.04725131      17.27590296       0.04455636       0.10615214      -0.07592255
H       22.62388343      16.75056808      15.23032025       0.15542608      -0.00283874      -0.01350491
H       24.33685839      16.50244367      15.66506796      -0.20695009       0.13412831      -0.11026614
H       29.60667436      19.59773239      11.26322660      -0.02926518       0.05270825       0.04942561
H       28.38607341      20.85570370      11.53283778       0.00979150      -0.06580861      -0.00241102
H       28.13341638      19.20577701      12.15504991       0.11499353       0.08093750      -0.03041225
H       28.02972989      19.77435481       8.03771946       0.03302443       0.04187238      -0.07281541
H       28.38152977      21.17928753       9.07542183      -0.01448983      -0.07023568      -0.05659174
H       29.55217551      19.85926242       8.91863169      -0.03060010       0.06335759      -0.06552343
H       24.92579837      18.17362596       9.06126733      -0.03146182       0.02466964      -0.04973556
H       26.04841315      19.00499729       7.98716619      -0.00868662       0.01842783      -0.06760469
H       26.56006626      17.53657667       8.83568491      -0.00219313      -0.01337907      -0.00115109
H       26.03077614      21.21711395      11.00179106      -0.00570480       0.05536600       0.01053094
H       26.01168104      21.21633930       9.23020360      -0.00065813       0.04519144      -0.05898827
H       24.67445811      20.49915085      10.13053948      -0.07083375       0.04313649       0.00489966
H       23.48939989      18.99519518      12.47754055      -0.15195301      -0.08016099       0.15884646
H       22.13172899      18.23013800      13.34392686       0.12200344       0.09797704      -0.07996509
H       22.26428389      20.60553502      13.95571864       0.04647828       0.06848074       0.05261800
H       23.95565936      20.42281347      14.45971201      -0.02882819       0.00445330      -0.03980932
H       20.27697465      20.68794769      15.33701699       0.10143709       0.05282155       0.00415162
H       19.66438983      22.04318275      16.27344638       0.04309730      -0.01927346      -0.10584646
H       20.66794656      22.34698819      14.84394475      -0.05992099      -0.01443578      -0.01490957
H       21.18563254      19.48668426      20.54028229      -0.06851742      -0.00100756       0.13664420
H       19.99343590      19.69024711      21.83233641       0.03540306      -0.04462718      -0.00754163
H       18.92287209      18.45065684      20.15282978       0.02572713       0.23875949      -0.03197961
H       18.04662021      21.32215319      19.58300674       0.02257296      -0.18009654       0.17389881
H       17.47553646      20.37181266      20.96640011       0.01758408       0.03253574      -0.12075522
H       16.68558247      19.35307585      16.98888921       0.04182810       0.08087357       0.02879216
H       17.59693060      20.80749219      17.44561756      -0.02697933      -0.13621941      -0.04880579
H       19.14254210      18.98954995      16.67108056      -0.08575857      -0.05576614       0.03834329
H       18.48186474      17.91673537      17.93584898       0.00611244       0.13873014      -0.11296231
H       22.04751633      22.52130130      24.36918369      -0.21050364       0.03510077       0.03300024
H       20.52265893      23.36527368      24.74127514       0.06393971      -0.05438317      -0.01092707
H       20.91131050      21.67865067      26.49032036       0.05194159      -0.05308576       0.00229321
H       21.13841871      20.41528613      25.27265585       0.04280656       0.03644786       0.03238632
H       18.55781152      21.98627070      25.77088620      -0.01876031      -0.07329512      -0.01392502
H       18.83130803      20.27845977      26.15682594      -0.04595583       0.03546677       0.02964495
H       13.45831897      16.86304597      18.16308470      -0.03436550       0.00408829      -0.03267984
H       14.97943381      18.64828990      17.58169867       0.00005204       0.02403020       0.00140384
H       16.78059774      18.51249503      21.48055782       0.02209765       0.02255287      -0.05262013
