151
Properties=species:S:1:pos:R:3:MACE_forces:R:3 energy:=T -221.332260747321=T gnorm:=T 0.008962713226=T xtb:=T 6.7.1=T (edcfbbe)=T MACE_energy=-90873.36023308455 pbc="F F F"
C       10.04811185      16.53936641      23.93489728       0.03949287      -0.26421692      -0.31426470
N       11.24923903      14.01134590      24.47670414      -0.25451544       0.14572677       0.03970678
O       10.00871819      14.95989908      22.04517377       0.03269472       0.03094098       0.19838530
C       10.84197131      15.76049562      22.88546892      -0.00660488       0.22461995      -0.04979075
N       13.39681366      15.64303251      20.89984670      -0.08425171       0.11148026       0.21576640
O       16.72942484      19.37174694      24.00370137      -0.02680405      -0.66132778      -0.03907344
C        9.17249619      15.68101106      21.16600114       0.13457998      -0.06634642       0.14871452
N       19.07876525      21.68016079      23.23164756      -0.28457252       0.24711671      -0.00888663
O       26.57460354      17.20433635      14.05103780      -0.58472415       0.49308517      -0.34864510
C       11.79395338      14.77925658      23.54388158       0.24708385       0.10187565      -0.27403103
N       20.45555479      21.92823501      23.26775133      -0.47546614       0.15595539       0.93528560
O       23.51663569      20.87088991      17.69011916      -0.32692280      -0.20035668      -0.32979776
C       11.98834164      13.10052318      25.08399139       0.07532059      -0.15196184       0.08584124
N       21.19176538      21.80203131      19.74291209       0.48891853      -0.21913347       0.46471358
O       19.45862205      22.67452407      18.58992641       0.06073082       0.09529251      -0.05475890
C       13.32593400      12.89230073      24.78861784       0.03506162       0.05372849      -0.08001323
N       21.68047120      21.64091323      16.65131493      -0.36257380       0.35495809       0.03715921
O       19.72461291      19.31981054      18.65293509       0.01700860       0.11609570       0.07896797
C       13.90601966      13.69360223      23.82205271      -0.13940166      -0.00474908       0.02226252
N       24.46997187      18.04998723      14.02121712      -0.45053120       0.04607661       0.20878627
O       22.40309869      22.04262644      22.14345376      -0.42859606      -0.17467957       0.00861894
C       13.14574794      14.67117919      23.17921626      -0.12020210      -0.27480396       0.23775492
N       28.01456021      19.45994090       9.64151300       0.01806249      -0.02721271       0.06503018
O       16.46263125      21.57476021      24.35336856       0.43919581      -0.50011130      -0.09919884
C       13.79965377      15.55985355      22.21345832       0.19895934       0.22247593       0.20510116
N       16.89512308      19.52247270      19.06060455      -0.03453326       0.21619070      -0.08937531
C       12.57467521      14.68491088      20.20325671      -0.09072718      -0.49408097      -0.18801161
C       13.42912329      13.60955671      19.53350879      -0.10438888       0.21152686       0.04708181
C       14.84084938      16.43422395      22.45157527      -0.12856435      -0.30487382       0.10126015
C       15.56829502      16.63578933      23.74418311      -0.13817085       0.08428807       0.06879407
C       15.02444496      17.76008288      24.65627134       0.21271169       0.15659893       0.03057842
C       15.71134170      17.66482672      26.02181234      -0.06716469       0.08469173      -0.31542969
C       13.51306522      17.63003670      24.83532900       0.24678231       0.09246821      -0.10884220
C       15.31033405      19.13453002      24.03933277      -0.63041066       0.02114870       0.12284107
C       17.16535351      20.59811942      24.19138004      -0.11411972       1.06287018       0.01922579
C       18.68494104      20.66275372      24.20412367      -0.08525429      -0.09709079       0.29506989
C       21.19900436      21.81815141      22.15750483       0.71764938       0.13773218      -0.99091156
C       20.43670467      21.39265899      20.90199929      -0.16966395       0.00811159       0.01097595
C       20.65487208      22.42524117      18.69230560      -0.14336331       0.09540056      -0.21845511
C       21.66341318      22.76768011      17.58855139       0.03122326       0.30689633       0.09086518
C       21.35128001      24.11446496      16.91997664       0.06641588      -0.12170725       0.12377513
C       22.34658924      24.41309783      15.80135614      -0.19624915      -0.16671571       0.13728560
C       21.41652050      25.21730083      17.97632238      -0.17861874      -0.16707765      -0.05687926
C       22.65991663      20.74396587      16.81343532       0.94704861      -0.39717555       0.40569103
C       22.81543503      19.57577285      15.81601928       0.49750444       0.03947184       0.13099591
C       23.88152241      18.60446352      16.32548816      -0.14233681       0.07030873      -0.11397942
C       24.12503310      17.49084222      15.30913594       0.13511023      -0.17576471       0.39571546
C       25.69427867      17.86577741      13.49714565       0.95356174      -0.91083370       0.60092870
C       25.91962723      18.44791001      12.19903545       0.58753201       0.30675229      -1.14377739
C       26.26389209      18.81307393      11.10288389      -0.45245020      -0.14595572       1.05482580
C       26.55997535      19.28848219       9.75461983      -0.04670441      -0.16574872      -0.35038322
C       28.58904650      20.31428912      10.66061214      -0.04809057      -0.00589903       0.10948064
C       28.48948503      19.83892508       8.32725898      -0.02266436      -0.02980128       0.00176834
C       26.08437756      18.17485109       8.80513119       0.05798980       0.10085984      -0.01777681
C       25.73771170      20.56979051       9.50144089       0.17393365      -0.04693339       0.02972852
C       23.45935112      18.91911328      13.47104693      -0.13112490       0.32558435      -0.17314034
C       23.19060307      20.09175331      14.42242754      -0.19758904      -0.30248801       0.05064080
C       20.52265573      21.53228226      15.78745041      -0.29340358      -0.07284450      -0.17816270
C       20.22359979      19.87032713      20.94209897      -0.17326390       0.08917818      -0.34820002
C       19.17480205      19.33800544      19.96586851      -0.11759906      -0.00334642       0.23812310
C       17.85499818      20.13075054      19.95862641       0.32229979       0.01656322       0.07849588
C       17.47087608      19.49329419      17.72820581       0.31141269      -0.17365706      -0.13972211
C       18.80863043      18.74146606      17.74191501      -0.20608754      -0.07619105      -0.11136453
C       21.01881716      22.30215454      24.55542287       0.17696185      -0.23396942       0.07615282
C       20.69051781      21.22003518      25.58218850      -0.09405495       0.21266033      -0.04638651
C       19.17962934      20.99322139      25.62342923       0.18072416      -0.15628297      -0.19568414
C       15.10626099      17.09102511      21.21111954      -0.25518101      -0.26383463      -0.48652670
C       14.19198943      16.56482476      20.27170690       0.35932134       0.50352375       0.02768850
C       14.18263339      17.02114263      18.95996433      -0.02416844      -0.07567437      -0.04638412
C       15.08974326      17.98696819      18.59912159       0.03725420      -0.05010782      -0.17162660
C       16.05318719      18.49941648      19.49757505      -0.13220051      -0.00428563       0.16729309
C       16.05069939      18.04012065      20.80918091       0.16595653       0.12076927      -0.04216236
F       21.61484770      18.85402224      15.72107603      -0.15636983      -0.01047497      -0.06844188
H       10.73500543      17.05559879      24.59810922       0.01244109       0.05600156       0.05470324
H        9.40544237      17.27390632      23.45731802      -0.01696530       0.06199170       0.01684166
H        9.44549469      15.84552825      24.51414454      -0.00480279       0.05067613       0.01003189
H       11.40793897      16.46591851      22.25362308      -0.13629261      -0.23323027       0.19135061
H        8.38643966      16.21843695      21.70173113       0.01744989      -0.00269477      -0.05754293
H        9.75308700      16.39116011      20.56743383      -0.05668269      -0.00991777      -0.02065232
H        8.71888515      14.93443113      20.51710015      -0.03188632       0.15914863      -0.04758926
H       11.47836549      12.51753672      25.83770321       0.06501997      -0.10243961       0.06134833
H       13.89238948      12.12773768      25.29533676       0.02162001      -0.03901515       0.03596988
H       14.94300440      13.56365305      23.54695616       0.00049048       0.03387326       0.00646240
H       11.88578980      14.22442163      20.91331492       0.10731762       0.22000372      -0.24591948
H       11.98868665      15.21654474      19.44906711      -0.04479730      -0.06900773       0.18098534
H       12.79266062      12.88968648      19.03042488      -0.03925481      -0.10843965      -0.08396624
H       14.10035842      14.05891344      18.80567160       0.04107590      -0.04846863      -0.03507671
H       14.02626417      13.08962161      20.27723157       0.02959628      -0.05617618       0.04052777
H       15.53185740      15.70873142      24.31813460       0.11670484       0.07918840       0.00385830
H       16.61417968      16.85865329      23.52458450       0.00887681      -0.13161669       0.09496325
H       15.49704852      16.70939525      26.48621551      -0.04478515      -0.14767239       0.06360657
H       16.78496606      17.76455265      25.91406036       0.16204869      -0.03379397       0.04877757
H       15.35829412      18.45204579      26.68002416      -0.03669376       0.12240251       0.12264362
H       13.26887018      16.64939546      25.23570311      -0.05776762      -0.02118865       0.00714264
H       13.14455159      18.38707001      25.52323890      -0.05822118       0.03482184       0.05010850
H       13.00665852      17.75060402      23.88151010      -0.11062581      -0.01597692       0.00581343
H       14.84643204      19.93312976      24.62538333       0.06500612      -0.19591310      -0.11543961
H       14.93503527      19.18268200      23.01351939       0.09833628       0.03543794       0.18626090
H       19.08630969      19.69537244      23.88389185      -0.02598963       0.24882384       0.07790309
H       18.56348847      22.53758176      23.44080800       0.17884546      -0.21579411      -0.10493863
H       19.47748751      21.91272304      20.87844589       0.27314716      -0.16933382      -0.01395800
H       22.18458027      21.61081174      19.77269494      -0.15920123       0.15207120      -0.15114447
H       22.66485347      22.81548028      18.02713684      -0.28899085       0.02650406      -0.14141196
H       20.33299478      24.08585266      16.52343333       0.12860670      -0.01260339       0.04455624
H       22.09316574      25.35447579      15.32644294       0.01969601       0.11901624      -0.08448904
H       23.35135438      24.49100815      16.20695979       0.13665890       0.02643310       0.03042169
H       22.35174099      23.63699717      15.04400927       0.02081588      -0.06998698      -0.11572347
H       20.68920618      25.03827528      18.76427981      -0.01041754       0.06595063       0.03393848
H       22.40785074      25.26246795      18.42292245       0.06304521       0.01959534       0.01342871
H       21.19823048      26.17929980      17.52022779       0.00394443       0.07405101       0.04302961
H       24.79885171      19.16435638      16.50479874      -0.10214448      -0.07817082       0.00435314
H       23.55243336      18.18047219      17.27414083       0.03588305       0.10559435      -0.04464173
H       23.21934963      16.88648251      15.19790264       0.12953189       0.00123073      -0.01868605
H       24.94964911      16.85496192      15.63503445      -0.21269749       0.08922820      -0.09274283
H       29.67066879      20.23366986      10.60463763       0.06467990       0.02832616       0.01936664
H       28.31999289      21.37339863      10.54514321       0.00649088       0.00872486       0.00616235
H       28.27102380      19.97547857      11.64332375       0.09778802       0.09216475      -0.02330099
H       28.11442344      19.14750691       7.57862711       0.04234371       0.07143052      -0.06621264
H       28.21533782      20.86591319       8.04267104       0.00181149      -0.05568349      -0.02854460
H       29.57713233      19.77147363       8.33381058      -0.05583970       0.02949056      -0.06610976
H       25.08879468      17.85077417       9.09544568      -0.02574632       0.02499943      -0.03975913
H       26.04397571      18.53102725       7.78069584      -0.00283769       0.00082403      -0.09133724
H       26.76083926      17.32734772       8.86970743       0.00205008      -0.00981641       0.00248127
H       25.98844669      21.33966765      10.22681711      -0.01662525       0.03172279      -0.01456776
H       25.93319685      20.94468778       8.50034886      -0.01125619       0.02708290      -0.04256134
H       24.67847801      20.34427228       9.58730346      -0.05456792       0.00384263      -0.00412568
H       23.79320754      19.29175352      12.50200492      -0.20972861      -0.10183803       0.20317416
H       22.53762960      18.34247916      13.34047681       0.11853777       0.10818347      -0.07867001
H       22.38951419      20.70553198      14.01598125       0.01407528       0.09338373       0.04747902
H       24.08876777      20.70116774      14.52640258      -0.03477293       0.01387732      -0.03145055
H       20.41314552      20.53250013      15.38881493       0.10433491       0.09375235       0.02249035
H       19.63551797      21.76201399      16.37836584       0.04215832       0.00664213      -0.10445918
H       20.59113951      22.24649860      14.96688173      -0.07564726      -0.05674689      -0.01445836
H       21.17486945      19.38376887      20.71466709      -0.08088873       0.00822387       0.13145587
H       19.91802649      19.58674901      21.94633483       0.03414889      -0.04939868      -0.01331373
H       18.94883451      18.29253641      20.24732900       0.03109420       0.25595042      -0.03023814
H       18.05431702      21.13057189      19.56089412       0.05651978      -0.15949343       0.22048282
H       17.44932631      20.22720678      20.96308677       0.02256871      -0.00296019      -0.06633982
H       16.80301321      19.01896724      17.01481857       0.04796771       0.08888332       0.04288657
H       17.64385649      20.52986156      17.42211700      -0.01373927      -0.14324567      -0.04511271
H       19.29289831      18.77158234      16.76707961      -0.04992259      -0.04759358       0.02228557
H       18.62875362      17.69157989      18.02546972       0.01319197       0.17493900      -0.10776545
H       22.09230372      22.42096369      24.41760335      -0.19384074       0.02682346       0.03598831
H       20.58376000      23.25861763      24.86305269       0.05755796      -0.03313307      -0.02045360
H       21.05142402      21.52779795      26.56204508       0.03864773      -0.04775154       0.01092107
H       21.19457875      20.29369692      25.30243892       0.04246204       0.05808405       0.04606086
H       18.67166374      21.89570609      25.97162256      -0.02425727      -0.09488677      -0.03366565
H       18.93258371      20.17595109      26.30034715      -0.06079001       0.02954881       0.00532516
H       13.47463318      16.64707526      18.23649002      -0.03391538      -0.00895273      -0.05468798
H       15.04646896      18.37464852      17.59436585      -0.02097687       0.02305598       0.00007046
H       16.77055169      18.39391652      21.53201582      -0.01983685       0.02563100      -0.06189264
