151
Properties=species:S:1:pos:R:3:MACE_forces:R:3 energy:=T -221.332241478379=T gnorm:=T 0.007660227536=T xtb:=T 6.7.1=T (edcfbbe)=T MACE_energy=-90873.33366182374 pbc="F F F"
C       10.21848337      16.46637037      24.04804705      -0.00074770      -0.16057964      -0.37386451
N       11.40262149      13.91148639      24.33710874      -0.28291407       0.08975237       0.08498864
O       10.13178621      15.12950817      21.98281069       0.02144588       0.01520926       0.18355285
C       10.98794310      15.80056889      22.90788940      -0.01018701       0.19370978       0.02426287
N       13.42787780      15.68722927      20.76075101      -0.21570586       0.07996982       0.23714039
O       16.80060506      19.31604847      23.88855083       0.08308533      -0.77241341      -0.10467312
C        9.30147664      15.97960502      21.22104431       0.09066277      -0.12857728       0.15397866
N       19.10180745      21.70356317      23.11776962      -0.34413211       0.20200768      -0.07921530
O       26.39936978      16.84331701      14.26179918      -0.55091336       0.54119085      -0.41957406
C       11.92615287      14.73199676      23.43937935       0.24438410       0.15181229      -0.34950093
N       20.47675324      21.96033344      23.16290279      -0.43356785       0.10488267       0.96695766
O       23.52623945      20.85444501      17.68280220      -0.27344939      -0.15401050      -0.26243610
C       12.14244622      12.93879969      24.84040931       0.08484762      -0.16520203       0.06780943
N       21.22816100      21.89227186      19.63922441       0.51760011      -0.29021436       0.55978784
O       19.51233403      22.77320478      18.46429187       0.03919675       0.09971329      -0.08687693
C       13.45934177      12.72198959      24.46942697       0.02180392       0.03661349      -0.01328896
N       21.72048224      21.62014528      16.59126963      -0.32941347       0.44503891       0.01470575
O       19.64099506      19.45762333      18.51167494       0.00528999       0.10011318       0.06701332
C       14.01787494      13.57750396      23.53686281      -0.14460064      -0.00853511      -0.02045096
N       24.30816140      17.72757297      14.21141616      -0.40452499       0.02964832       0.07146419
O       22.42906492      22.07351749      22.04674414      -0.38819134      -0.15543913       0.01090460
C       13.25512796      14.61377793      22.99945680      -0.14721132      -0.36558500       0.26383533
N       27.79973336      19.67258937      10.04153688       0.03950056      -0.04678635       0.04211634
O       16.47614163      21.51045870      24.22216772       0.42643847      -0.36509540      -0.12560174
C       13.87413438      15.54944143      22.05582099       0.32381668       0.27843257       0.19035692
N       16.82346457      19.69418291      18.99212959       0.00522140       0.23709736      -0.01476704
C       12.61594979      14.72068610      20.06278202      -0.05545096      -0.48267972      -0.18058332
C       13.46768268      13.55806246      19.55421241      -0.11136256       0.19152959       0.02988318
C       14.91231592      16.42364167      22.30079581      -0.11068448      -0.33395689       0.08302080
C       15.69259440      16.56175022      23.56944136      -0.14636662       0.09289640       0.06214973
C       15.18267680      17.63095335      24.56199925       0.25779311       0.17697222      -0.01284553
C       15.95678804      17.48900397      25.87549861      -0.08365882       0.08086814      -0.20969515
C       13.68851416      17.46043666      24.82665699       0.23796550       0.15022076      -0.11601632
C       15.39617749      19.03829023      23.99137398      -0.64488602      -0.02389562       0.19757657
C       17.20433480      20.55568653      24.05625766      -0.06247921       1.07255559       0.04788471
C       18.71924188      20.65769208      24.06316532      -0.00267532      -0.03658032       0.35625485
C       21.22346225      21.86500932      22.05275057       0.51769286       0.13728821      -0.91768773
C       20.45656250      21.47847111      20.78683484      -0.09873222       0.07095673      -0.12316495
C       20.70270484      22.50420091      18.57591607      -0.16400628       0.22377314      -0.22625155
C       21.72411338      22.79450582      17.46908630       0.06009138       0.23072712       0.12056921
C       21.45749612      24.11259743      16.72946885       0.10013180      -0.07892872       0.17066671
C       22.53244095      24.34732388      15.66926821      -0.23697157      -0.13359127       0.11284090
C       21.45621373      25.26088542      17.73817253      -0.20979164      -0.15377799      -0.05173766
C       22.66327707      20.69992117      16.81808711       0.84529233      -0.42377714       0.29620379
C       22.76337833      19.45702146      15.90880502       0.52648440       0.14073862       0.14676053
C       23.79619168      18.48059852      16.47495067      -0.16888693       0.00354122      -0.10589845
C       23.97509498      17.28062860      15.54404512       0.14136765      -0.18197802       0.48015707
C       25.53480730      17.51673666      13.69801922       0.78226514      -0.91927229       0.74630505
C       25.77647822      18.12706130      12.41636446       0.66944838       0.38818627      -0.93492616
C       26.12624872      18.64077872      11.38478904      -0.44000130      -0.33273705       0.76349176
C       26.37713765      19.31673629      10.11556249      -0.05410792      -0.04418347      -0.33541835
C       28.32216262      20.31804821      11.22743026       0.04888379       0.07532905       0.15533900
C       28.18347142      20.40525672       8.85245127      -0.01668594      -0.02931132       0.04693366
C       26.03490686      18.30589515       9.00523587       0.02389454       0.09738722       0.01493569
C       25.41060876      20.51872242      10.04264145       0.19227974      -0.04328877       0.02542643
C       23.31702676      18.59292142      13.62074845      -0.08751407       0.33362073      -0.13157792
C       23.13233595      19.85061748      14.47456034      -0.21500601      -0.29005381       0.06197459
C       20.57885986      21.51194737      15.70849701      -0.26901484      -0.04024630      -0.12752550
C       20.20751196      19.96014930      20.79677118      -0.18520477       0.09107097      -0.32966931
C       19.12719285      19.46295663      19.83705886      -0.15276929      -0.06832562       0.30350182
C       17.81412208      20.26736237      19.88307688       0.26636403      -0.07934900       0.05071085
C       17.37319396      19.68544108      17.64690181       0.31578935      -0.13870829      -0.10393920
C       18.69116599      18.90205507      17.62105307      -0.15469918       0.00841986      -0.10430191
C       21.03773467      22.30932079      24.45995427       0.25479156      -0.16877678      -0.02417371
C       20.70654909      21.21473875      25.47284179      -0.18317144       0.21857418      -0.02638693
C       19.19841379      20.96656382      25.49260993       0.15259555      -0.19874812      -0.17729189
C       15.12940005      17.14170331      21.08481766      -0.28566443      -0.23173133      -0.46301108
C       14.19278664      16.64502577      20.15069803       0.39536162       0.50426781       0.07151163
C       14.13361544      17.16783658      18.86509310       0.00052740      -0.04849261      -0.10851409
C       15.01524323      18.16509175      18.52574258      -0.04505598      -0.10625642      -0.18505072
C       16.00317851      18.64485935      19.41519308      -0.07625355       0.01448153       0.17184423
C       16.04694998      18.12446700      20.70237891       0.14185820       0.11922176      -0.07033755
F       21.53233219      18.78358740      15.88247800      -0.19425116      -0.11746358      -0.05179337
H       10.92005136      16.87233863      24.76859386       0.00921077       0.06717596       0.08729185
H        9.59902603      17.27490869      23.66923340       0.00046076       0.05244447       0.02816825
H        9.59545764      15.72408324      24.53727348      -0.00026486       0.01820867       0.03632703
H       11.56668128      16.56035077      22.35722360      -0.11859719      -0.21832792       0.15287441
H        8.50063389      16.41132458      21.82825340       0.07897015       0.05710165      -0.08290717
H        9.88805671      16.77715776      20.75163538      -0.09155733       0.00422222      -0.00096482
H        8.85739586      15.34778215      20.45605904      -0.02352779       0.11727191      -0.05705855
H       11.64866003      12.31294057      25.57098357       0.07920653      -0.09903377       0.03731916
H       14.02755712      11.91032895      24.89523118       0.01241104      -0.01800902       0.02132422
H       15.03849060      13.44386410      23.20844847       0.02288059       0.03702146      -0.00556904
H       11.84110743      14.35071399      20.73734528       0.13725121       0.19671686      -0.22117447
H       12.13195463      15.22284802      19.22336606      -0.05125438      -0.02708683       0.18343434
H       12.85305803      12.86413873      18.98932239      -0.01681496      -0.10765063      -0.05371010
H       14.26452580      13.92724519      18.91253999       0.03430479      -0.03992067      -0.02914582
H       13.91295278      13.02658562      20.39273832       0.01192648      -0.02384460      -0.00548236
H       15.68843387      15.60407659      24.09295802       0.11411231       0.08699217      -0.01034673
H       16.72649178      16.80618383      23.31314298      -0.01991038      -0.14661551       0.10577315
H       15.74011852      16.52725081      26.33196030      -0.00405600      -0.07565480       0.05906341
H       17.02690774      17.55617647      25.69845957       0.05374704      -0.01734714       0.04606260
H       15.66968745      18.27247447      26.57377107       0.00341560       0.03942442       0.08458237
H       13.48176154      16.45244551      25.17514424      -0.05233121      -0.05680252       0.02196424
H       13.35501204      18.16556561      25.58355264      -0.05401267       0.04171478       0.07604313
H       13.12266751      17.63566699      23.91575086      -0.09051712      -0.02594346      -0.01301804
H       14.94605294      19.79475903      24.64008553       0.04326144      -0.18020705      -0.12345272
H       14.95211863      19.12165888      22.99730472       0.07578887       0.05025308       0.11494287
H       19.14394297      19.70691014      23.72666162      -0.07286673       0.22814335       0.06095666
H       18.58004129      22.55240303      23.34551341       0.18361092      -0.19599835      -0.07217153
H       19.51126683      22.02363069      20.76423259       0.29599503      -0.18750214       0.01131737
H       22.21712864      21.67648377      19.66410592      -0.17577392       0.11587222      -0.11581377
H       22.72442051      22.84253431      17.91373173      -0.31389709       0.02363212      -0.16737565
H       20.47104092      24.07467048      16.26231432       0.09756269      -0.03196765       0.05705779
H       22.33832599      25.27715518      15.14116229       0.03558603       0.03292312      -0.05700445
H       23.51154787      24.41427583      16.13946705       0.06744938       0.01292842      -0.00423062
H       22.56066182      23.53699024      14.94616695       0.05476354      -0.03604617      -0.09154944
H       20.63314879      25.15216585      18.44131630       0.03467420       0.04865404       0.00612945
H       22.38955720      25.28434658      18.29663367       0.08598021       0.03115523       0.01041757
H       21.33962802      26.20860879      17.21806371       0.01583920       0.06258802       0.03346677
H       24.73874810      19.01475300      16.59833115      -0.11748471      -0.10389541      -0.00111806
H       23.46805961      18.14355373      17.45853515       0.03457086       0.11869899      -0.07689429
H       23.04584345      16.70356425      15.50388794       0.15239010       0.01833850      -0.02550392
H       24.78480349      16.64097581      15.90078848      -0.24172134       0.11950625      -0.11494337
H       29.40641932      20.37447964      11.13568066      -0.03933826       0.03812819       0.03831359
H       27.93866440      21.34084326      11.37485371       0.04079510      -0.08650008      -0.01002605
H       28.08362808      19.72291475      12.10727753       0.08445967       0.11230168      -0.04257976
H       27.79760576      19.91196790       7.96577510       0.02326251       0.05284586      -0.06878029
H       27.84592698      21.45310904       8.86025858       0.00526230      -0.07802563      -0.04312597
H       29.27205267      20.40317332       8.79657293      -0.06466403       0.04540015      -0.07055733
H       25.09841418      17.80770090       9.24144489      -0.02999151       0.02345989      -0.06813109
H       25.92565420      18.80580187       8.04738760       0.00517778       0.01018142      -0.06908776
H       26.82195722      17.56067259       8.93624388      -0.00043317      -0.01168512       0.00729584
H       25.60339237      21.21281961      10.85762829      -0.03161326       0.02429223      -0.01450628
H       25.53108508      21.03781237       9.09590827      -0.01717648       0.03098225      -0.04904436
H       24.38491775      20.16881890      10.11992628      -0.05224190       0.02896957      -0.00602113
H       23.63105431      18.86455920      12.61353766      -0.14537806      -0.08456887       0.16264807
H       22.36922539      18.04798027      13.57198106       0.09825303       0.09657453      -0.08844275
H       22.35084388      20.46980289      14.03734451       0.06356735       0.06124641       0.04899156
H       24.06133629      20.42139539      14.51094594      -0.05225390      -0.00628588      -0.04172616
H       20.43798504      20.49938122      15.35664425       0.08789149       0.05005696       0.02182355
H       19.68871901      21.80309328      16.26778547       0.05566551      -0.02182230      -0.11864596
H       20.69364797      22.18321836      14.85751838      -0.05709151      -0.02745909      -0.02469850
H       21.14376287      19.45838311      20.54173568      -0.06755111       0.00605752       0.12385658
H       19.91670364      19.66282698      21.80055706       0.04140256      -0.05408261      -0.00077990
H       18.89593971      18.41513890      20.10734048       0.02512114       0.24571528      -0.02473098
H       18.01216101      21.27637383      19.50987472       0.02396973      -0.17497407       0.18177727
H       17.43450925      20.33592459      20.90108530       0.00667210       0.02855922      -0.10097515
H       16.67964733      19.24529273      16.93609911       0.05072004       0.08619589       0.03371538
H       17.56702253      20.72528190      17.36456390      -0.02547554      -0.15209120      -0.04827896
H       19.15146126      18.92289908      16.63527953      -0.08631115      -0.05119698       0.02611612
H       18.49490083      17.85606126      17.90753851       0.00768659       0.13544103      -0.11603096
H       22.11327332      22.42280262      24.32552850      -0.21144670       0.04414829       0.04381877
H       20.60778498      23.26453029      24.77846362       0.06184518      -0.05005811      -0.00934866
H       21.04627412      21.52083925      26.46117649       0.05969187      -0.05413448      -0.01209439
H       21.22745667      20.29710179      25.19653680       0.04995059       0.03132317       0.02393122
H       18.67292350      21.85401777      25.85261658      -0.00887032      -0.07967583      -0.02687214
H       18.95666506      20.13200392      26.14968487      -0.05140954       0.02926447       0.03577105
H       13.40715242      16.82213323      18.14563472      -0.03163850       0.00535140      -0.03351725
H       14.92902112      18.60325502      17.54471170       0.00938741       0.02573995       0.00231441
H       16.77867546      18.45904824      21.41988077       0.02806064       0.02192033      -0.05422287
