151
Properties=species:S:1:pos:R:3:MACE_forces:R:3 energy:=T -221.332241478379=T gnorm:=T 0.007660227536=T xtb:=T 6.7.1=T (edcfbbe)=T MACE_energy=-90873.37194882566 pbc="F F F"
C       10.21848337      16.46637037      24.04804705       0.01290727      -0.20573958      -0.35519086
N       11.40262149      13.91148639      24.33710874      -0.27028472       0.13382405       0.09371162
O       10.13178621      15.12950817      21.98281069       0.03555076      -0.01219311       0.21430289
C       10.98794310      15.80056889      22.90788940       0.00018022       0.19702880      -0.00434751
N       13.42787780      15.68722927      20.76075101      -0.15535097       0.05941565       0.30769381
O       16.80060506      19.31604847      23.88855083       0.04392333      -0.69559383      -0.02722498
C        9.30147664      15.97960502      21.22104431       0.08903568      -0.09826283       0.14337894
N       19.10180745      21.70356317      23.11776962      -0.30856175       0.27113167       0.01313979
O       26.39936978      16.84331701      14.26179918      -0.59119776       0.51637229      -0.38328239
C       11.92615287      14.73199676      23.43937935       0.27581320       0.14425280      -0.32067660
N       20.47675324      21.96033344      23.16290279      -0.45926440       0.11606436       0.96172086
O       23.52623945      20.85444501      17.68280220      -0.28816568      -0.21492358      -0.21879154
C       12.14244622      12.93879969      24.84040931       0.05254824      -0.17316766       0.05698609
N       21.22816100      21.89227186      19.63922441       0.48890827      -0.27418242       0.45764932
O       19.51233403      22.77320478      18.46429187       0.03028375       0.08517488      -0.06085862
C       13.45934177      12.72198959      24.46942697       0.03021815       0.04410506      -0.04125847
N       21.72048224      21.62014528      16.59126963      -0.30264573       0.40153181      -0.02487752
O       19.64099506      19.45762333      18.51167494       0.04126426       0.11024625       0.05061191
C       14.01787494      13.57750396      23.53686281      -0.13838079       0.00131852       0.01011746
N       24.30816140      17.72757297      14.21141616      -0.38997634       0.03453098       0.12052225
O       22.42906492      22.07351749      22.04674414      -0.35994456      -0.13725554       0.00551294
C       13.25512796      14.61377793      22.99945680      -0.15224521      -0.30010534       0.22902651
N       27.79973336      19.67258937      10.04153688       0.04042304      -0.04795288       0.08408736
O       16.47614163      21.51045870      24.22216772       0.37799967      -0.36907818      -0.10475707
C       13.87413438      15.54944143      22.05582099       0.25693741       0.27194988       0.21655914
N       16.82346457      19.69418291      18.99212959      -0.04980986       0.21920434      -0.07654343
C       12.61594979      14.72068610      20.06278202      -0.07991178      -0.52341084      -0.19858529
C       13.46768268      13.55806246      19.55421241      -0.11422919       0.18086259       0.04031644
C       14.91231592      16.42364167      22.30079581      -0.11286089      -0.31400746       0.07016819
C       15.69259440      16.56175022      23.56944136      -0.11908692       0.09678886       0.07160074
C       15.18267680      17.63095335      24.56199925       0.24250997       0.18475536       0.01417662
C       15.95678804      17.48900397      25.87549861      -0.06319356       0.06399066      -0.22993115
C       13.68851416      17.46043666      24.82665699       0.24861680       0.11696856      -0.13500185
C       15.39617749      19.03829023      23.99137398      -0.68044563      -0.05058481       0.20441292
C       17.20433480      20.55568653      24.05625766      -0.08431180       1.00861570       0.01363417
C       18.71924188      20.65769208      24.06316532      -0.03088890      -0.07723639       0.31489617
C       21.22346225      21.86500932      22.05275057       0.63047570       0.10871898      -0.97324642
C       20.45656250      21.47847111      20.78683484      -0.13042455       0.03005931      -0.05299662
C       20.70270484      22.50420091      18.57591607      -0.13124119       0.18064842      -0.20928973
C       21.72411338      22.79450582      17.46908630       0.04783783       0.27240518       0.11538595
C       21.45749612      24.11259743      16.72946885       0.09332883      -0.10453706       0.16608108
C       22.53244095      24.34732388      15.66926821      -0.21231422      -0.13545871       0.09694424
C       21.45621373      25.26088542      17.73817253      -0.20484917      -0.14287042      -0.05438040
C       22.66327707      20.69992117      16.81808711       0.93205008      -0.43001310       0.33016620
C       22.76337833      19.45702146      15.90880502       0.46120798       0.04654878       0.10442854
C       23.79619168      18.48059852      16.47495067      -0.11365735       0.07056804      -0.10342093
C       23.97509498      17.28062860      15.54404512       0.12072839      -0.18103447       0.44473819
C       25.53480730      17.51673666      13.69801922       0.87595314      -0.93148076       0.67217742
C       25.77647822      18.12706130      12.41636446       0.67928442       0.40186458      -0.97740352
C       26.12624872      18.64077872      11.38478904      -0.43359438      -0.35938314       0.82431969
C       26.37713765      19.31673629      10.11556249      -0.05847688      -0.11392860      -0.37986645
C       28.32216262      20.31804821      11.22743026       0.03781112       0.03900448       0.17083387
C       28.18347142      20.40525672       8.85245127      -0.00089638      -0.03575962       0.02599429
C       26.03490686      18.30589515       9.00523587       0.01309144       0.11913852       0.02385839
C       25.41060876      20.51872242      10.04264145       0.19206329       0.00704804      -0.00413092
C       23.31702676      18.59292142      13.62074845      -0.12635954       0.31230875      -0.19212913
C       23.13233595      19.85061748      14.47456034      -0.23518590      -0.26407009       0.08140671
C       20.57885986      21.51194737      15.70849701      -0.34082551      -0.06087487      -0.16313276
C       20.20751196      19.96014930      20.79677118      -0.16130560       0.11198218      -0.32066156
C       19.12719285      19.46295663      19.83705886      -0.13829108      -0.02770776       0.28122695
C       17.81412208      20.26736237      19.88307688       0.30803217      -0.01955404       0.09382008
C       17.37319396      19.68544108      17.64690181       0.31677848      -0.15761045      -0.13035553
C       18.69116599      18.90205507      17.62105307      -0.19713273      -0.04686496      -0.11887908
C       21.03773467      22.30932079      24.45995427       0.20152347      -0.22347400       0.03437463
C       20.70654909      21.21473875      25.47284179      -0.12208342       0.21684880      -0.04726865
C       19.19841379      20.96656382      25.49260993       0.20281565      -0.14939782      -0.19460131
C       15.12940005      17.14170331      21.08481766      -0.28569278      -0.26643836      -0.47252283
C       14.19278664      16.64502577      20.15069803       0.37152962       0.53929684      -0.00774736
C       14.13361544      17.16783658      18.86509310      -0.00989928      -0.06971473      -0.05430017
C       15.01524323      18.16509175      18.52574258       0.01191541      -0.06420315      -0.18131488
C       16.00317851      18.64485935      19.41519308      -0.12299314      -0.00569520       0.16459154
C       16.04694998      18.12446700      20.70237891       0.13085170       0.13049103      -0.09335407
F       21.53233219      18.78358740      15.88247800      -0.17436399      -0.02235237      -0.05137632
H       10.92005136      16.87233863      24.76859386       0.02699975       0.05785277       0.08012044
H        9.59902603      17.27490869      23.66923340      -0.01061732       0.05628945       0.02063981
H        9.59545764      15.72408324      24.53727348      -0.01860783       0.03915799       0.03166226
H       11.56668128      16.56035077      22.35722360      -0.13045370      -0.22372845       0.15903793
H        8.50063389      16.41132458      21.82825340       0.08025642       0.04870664      -0.07637413
H        9.88805671      16.77715776      20.75163538      -0.09440065      -0.00602124      -0.00166707
H        8.85739586      15.34778215      20.45605904      -0.03101132       0.12255054      -0.06641150
H       11.64866003      12.31294057      25.57098357       0.08214853      -0.09802208       0.03793370
H       14.02755712      11.91032895      24.89523118       0.01627889      -0.03133019       0.02767800
H       15.03849060      13.44386410      23.20844847       0.01574309       0.03829359      -0.00817627
H       11.84110743      14.35071399      20.73734528       0.13451336       0.19127377      -0.25638835
H       12.13195463      15.22284802      19.22336606      -0.05360868      -0.02075263       0.17279453
H       12.85305803      12.86413873      18.98932239      -0.02321011      -0.09669982      -0.05213797
H       14.26452580      13.92724519      18.91253999       0.03764824      -0.03699941      -0.02613144
H       13.91295278      13.02658562      20.39273832       0.01607076      -0.02793678      -0.01006279
H       15.68843387      15.60407659      24.09295802       0.11632603       0.08027399       0.00616744
H       16.72649178      16.80618383      23.31314298      -0.01863498      -0.13938410       0.11336577
H       15.74011852      16.52725081      26.33196030      -0.00145912      -0.07129896       0.04028182
H       17.02690774      17.55617647      25.69845957       0.05247573      -0.01375188       0.05366103
H       15.66968745      18.27247447      26.57377107       0.00624730       0.04481596       0.07339837
H       13.48176154      16.45244551      25.17514424      -0.05526067      -0.03813185       0.01827871
H       13.35501204      18.16556561      25.58355264      -0.06745153       0.03752440       0.06590139
H       13.12266751      17.63566699      23.91575086      -0.11471144      -0.02428748       0.01364072
H       14.94605294      19.79475903      24.64008553       0.06044576      -0.17125992      -0.10979461
H       14.95211863      19.12165888      22.99730472       0.11692112       0.03525982       0.11961705
H       19.14394297      19.70691014      23.72666162      -0.03215127       0.22561034       0.07201774
H       18.58004129      22.55240303      23.34551341       0.17117598      -0.22924957      -0.10353187
H       19.51126683      22.02363069      20.76423259       0.25879191      -0.18572750       0.00397688
H       22.21712864      21.67648377      19.66410592      -0.20093133       0.14719995      -0.11418555
H       22.72442051      22.84253431      17.91373173      -0.33447499       0.01558510      -0.15085832
H       20.47104092      24.07467048      16.26231432       0.09260834      -0.01685308       0.05891245
H       22.33832599      25.27715518      15.14116229       0.03233021       0.03434637      -0.05013532
H       23.51154787      24.41427583      16.13946705       0.07743804       0.02061216       0.00262648
H       22.56066182      23.53699024      14.94616695       0.04982726      -0.02212344      -0.08665035
H       20.63314879      25.15216585      18.44131630       0.02954508       0.04742012       0.01007485
H       22.38955720      25.28434658      18.29663367       0.08175490       0.02767431       0.01818453
H       21.33962802      26.20860879      17.21806371       0.00857576       0.06081386       0.04213547
H       24.73874810      19.01475300      16.59833115      -0.11339550      -0.09349636       0.00608644
H       23.46805961      18.14355373      17.45853515       0.03181861       0.11423818      -0.06296288
H       23.04584345      16.70356425      15.50388794       0.14574927       0.00377003      -0.03501120
H       24.78480349      16.64097581      15.90078848      -0.22433449       0.10540551      -0.09818650
H       29.40641932      20.37447964      11.13568066      -0.05159711       0.04078346       0.03151819
H       27.93866440      21.34084326      11.37485371       0.03725755      -0.08200292       0.00381514
H       28.08362808      19.72291475      12.10727753       0.11906191       0.14845895      -0.06751136
H       27.79760576      19.91196790       7.96577510       0.02756393       0.06809263      -0.06227417
H       27.84592698      21.45310904       8.86025858      -0.00369047      -0.07015887      -0.04406289
H       29.27205267      20.40317332       8.79657293      -0.06361305       0.04725372      -0.06832391
H       25.09841418      17.80770090       9.24144489      -0.03087716       0.02882685      -0.04726191
H       25.92565420      18.80580187       8.04738760       0.00602116       0.01286622      -0.06913758
H       26.82195722      17.56067259       8.93624388       0.00032722      -0.01392884       0.01513357
H       25.60339237      21.21281961      10.85762829      -0.02399809       0.03297027      -0.01568905
H       25.53108508      21.03781237       9.09590827      -0.01882297       0.03555695      -0.04447631
H       24.38491775      20.16881890      10.11992628      -0.04960106      -0.00584831      -0.01383136
H       23.63105431      18.86455920      12.61353766      -0.23084999      -0.06964193       0.20497455
H       22.36922539      18.04798027      13.57198106       0.11360016       0.09105420      -0.08885873
H       22.35084388      20.46980289      14.03734451       0.06270989       0.07506954       0.04434781
H       24.06133629      20.42139539      14.51094594      -0.04789651      -0.00288159      -0.02794187
H       20.43798504      20.49938122      15.35664425       0.10421514       0.06741788       0.02064714
H       19.68871901      21.80309328      16.26778547       0.04551494      -0.00984903      -0.10716641
H       20.69364797      22.18321836      14.85751838      -0.07664711      -0.05673378      -0.02812548
H       21.14376287      19.45838311      20.54173568      -0.07875309       0.00815859       0.12592843
H       19.91670364      19.66282698      21.80055706       0.03651984      -0.06228096      -0.01104936
H       18.89593971      18.41513890      20.10734048       0.04386011       0.26492861      -0.02984894
H       18.01216101      21.27637383      19.50987472       0.06827959      -0.14818842       0.19846098
H       17.43450925      20.33592459      20.90108530       0.02762772       0.00497140      -0.09995124
H       16.67964733      19.24529273      16.93609911       0.05380121       0.08838185       0.04542097
H       17.56702253      20.72528190      17.36456390      -0.01943817      -0.15524384      -0.05165025
H       19.15146126      18.92289908      16.63527953      -0.04825324      -0.04652422       0.01794474
H       18.49490083      17.85606126      17.90753851       0.01205035       0.17074901      -0.11821653
H       22.11327332      22.42280262      24.32552850      -0.22659658       0.04120278       0.04189589
H       20.60778498      23.26453029      24.77846362       0.05657233      -0.04188805      -0.00655432
H       21.04627412      21.52083925      26.46117649       0.05257851      -0.05015312      -0.00563724
H       21.22745667      20.29710179      25.19653680       0.03889528       0.05093958       0.03502525
H       18.67292350      21.85401777      25.85261658      -0.01966265      -0.08640060      -0.02695919
H       18.95666506      20.13200392      26.14968487      -0.06414267       0.02590250       0.01909962
H       13.40715242      16.82213323      18.14563472      -0.03275296      -0.00628202      -0.04521372
H       14.92902112      18.60325502      17.54471170      -0.00388420       0.02775997       0.00270897
H       16.77867546      18.45904824      21.41988077       0.02358961       0.03009459      -0.02757513
