151
Properties=species:S:1:pos:R:3:MACE_forces:R:3 energy:=T -221.332211227734=T gnorm:=T 0.004673078013=T xtb:=T 6.7.1=T (edcfbbe)=T MACE_energy=-90873.39709028653 pbc="F F F"
C       10.33968063      16.26726598      24.19092583       0.02734668      -0.15906011      -0.36719043
N       11.52949988      13.70969281      24.17120363      -0.26771249       0.15049192       0.10245383
O       10.20738022      15.20386952      21.97995311       0.03158556      -0.06493604       0.19020680
C       11.08714533      15.74465299      22.96436895       0.00150585       0.24221115       0.05348131
N       13.42674578      15.77301338      20.69478112      -0.11014549       0.06047435       0.27542088
O       16.85286633      19.23779454      24.01865294       0.09900345      -0.69089345       0.00421044
C        9.43945050      16.16013699      21.28225405       0.12450541      -0.05538958       0.10440494
N       18.94696167      21.80871113      23.15410357      -0.34127096       0.22599757      -0.00633715
O       25.97013769      16.64140449      14.20409162      -0.49107893       0.61294459      -0.36916269
C       12.02829642      14.61643153      23.34439935       0.25301369       0.15438072      -0.29877296
N       20.29016754      22.19399990      23.22299682      -0.50374859       0.10444246       0.91140868
O       23.29406803      20.70468393      17.75611652      -0.35385272      -0.15564209      -0.39779942
C       12.27979694      12.68898300      24.54560590       0.09900281      -0.21490997       0.05314546
N       21.19219887      22.03391336      19.72921500       0.43936037      -0.21909133       0.48368539
O       19.51958624      22.90268489      18.48457367       0.10277520       0.07395743      -0.04788246
C       13.58417333      12.50863508      24.11274685      -0.01118804       0.05144366      -0.02779130
N       21.65177462      21.71684277      16.60456779      -0.26317194       0.42214550      -0.01075297
O       19.60089716      19.66661384      18.58594365       0.04969282       0.08182993       0.09593609
C       14.11453351      13.44966715      23.24966361      -0.13253797       0.02780345       0.01737088
N       23.99013382      17.74567364      14.11473945      -0.43050031       0.08070546       0.13666996
O       22.26896733      22.40166670      22.17103838      -0.35909777      -0.19247997       0.00013341
C       13.33789520      14.53468598      22.84457956      -0.10992886      -0.30847375       0.20276065
N       27.91451462      19.15148736      10.14030946       0.02505053      -0.02667039       0.05279213
O       16.31907567      21.40972707      24.15694663       0.40678208      -0.31968988      -0.06560005
C       13.92313358      15.54539748      21.95824742       0.22155520       0.21123457       0.21355342
N       16.77853198      19.86324562      19.05542591      -0.09540532       0.21430931      -0.05153514
C       12.56457944      14.87861949      19.96277598      -0.11118165      -0.50549751      -0.23746769
C       13.37237987      13.78758212      19.26117043      -0.10642556       0.18990955       0.05290062
C       14.97595132      16.39650760      22.22065776      -0.11973176      -0.30587030       0.07785816
C       15.81943711      16.43669410      23.45610494      -0.14521248       0.08729882       0.09446880
C       15.35039299      17.40137545      24.56784291       0.22321679       0.18877966       0.03690807
C       16.22085779      17.17952517      25.80780222      -0.06981217       0.07458539      -0.23731801
C       13.88619521      17.14954585      24.92294317       0.22210310       0.10680296      -0.12901134
C       15.47029293      18.85789885      24.10424087      -0.66848506      -0.04731191       0.14190353
C       17.13864207      20.51937903      24.08996759      -0.15565018       0.94931880      -0.06942691
C       18.63744317      20.76369968      24.12737413      -0.08203881      -0.07961197       0.31034198
C       21.08087444      22.10906009      22.14225552       0.72916649       0.14886208      -0.94624734
C       20.38250836      21.65371694      20.86059502      -0.16073123       0.03769020      -0.02759733
C       20.70187020      22.61067628      18.63071983      -0.16067733       0.12840609      -0.20113164
C       21.74794803      22.84563309      17.53486519       0.02848586       0.24287579       0.12367594
C       21.58609293      24.21597371      16.86368154       0.06740218      -0.12266922       0.14036280
C       22.64811925      24.41868874      15.78594199      -0.21007775      -0.11010599       0.09089438
C       21.71472671      25.30136426      17.93251516      -0.19487965      -0.14912617      -0.06718406
C       22.47858453      20.68887928      16.83160046       0.87684940      -0.49625900       0.49787209
C       22.52063194      19.50122147      15.84710716       0.48718795      -0.03142297       0.15517813
C       23.43580250      18.40534058      16.39554090      -0.14110610       0.07596166      -0.09453340
C       23.54621499      17.25242624      15.39841652       0.08430832      -0.19065090       0.41499586
C       25.20753886      17.42781460      13.63883968       0.75570507      -1.10593856       0.60965758
C       25.56594286      18.04023207      12.38588982       0.68620897       0.40032541      -0.98651294
C       26.00772245      18.50063887      11.36432593      -0.53462947      -0.32401641       0.87969097
C       26.44889178      19.10281097      10.10869792      -0.06248068      -0.05539036      -0.32781669
C       28.46012812      19.89813550      11.25782871       0.09057140       0.03387506       0.11961297
C       28.55523249      19.54509424       8.90428597      -0.02952835      -0.02897854       0.00511856
C       25.96633078      18.17205552       8.98376009       0.05525049       0.09866575       0.01196312
C       25.76390505      20.47967708       9.97075507       0.18899845      -0.07452608       0.03017642
C       23.11423899      18.73300509      13.53310784      -0.09226772       0.33190710      -0.15547831
C       22.99329679      19.94749071      14.46061876      -0.24865794      -0.26610473       0.02470620
C       20.51638391      21.74436103      15.70555949      -0.30681422      -0.02449437      -0.18604660
C       20.14476227      20.13531545      20.88947115      -0.17781316       0.07990994      -0.34940244
C       19.08149597      19.63451515      19.91118347      -0.11903904      -0.02510661       0.23843636
C       17.75728894      20.41878124      19.96740338       0.30092472       0.00460560       0.10982517
C       17.33405843      19.89525505      17.71421794       0.33783882      -0.16672343      -0.12476122
C       18.65911930      19.12596584      17.67797413      -0.22909411      -0.05306341      -0.16449500
C       20.77813997      22.63456742      24.52020156       0.22289481      -0.18506191       0.08986857
C       20.53078017      21.53957065      25.55717052      -0.11765989       0.20681456      -0.07264727
C       19.05015836      21.15980989      25.55705722       0.21502400      -0.15146303      -0.18946633
C       15.14776764      17.19517365      21.04875652      -0.31439709      -0.21568512      -0.48318690
C       14.17502245      16.76389714      20.11885387       0.38809388       0.52669797       0.05233140
C       14.08156297      17.35506489      18.86531474      -0.02548707      -0.06354863      -0.07125295
C       14.96122397      18.36261942      18.55385919       0.00000278      -0.06081580      -0.15161339
C       15.97118816      18.79134429      19.44402225      -0.09960177      -0.00986566       0.17115618
C       16.05348703      18.19970607      20.69768589       0.11686679       0.13379901      -0.09056749
F       21.24303819      18.93413216      15.71528618      -0.18054334       0.02003366      -0.04961091
H       11.05382905      16.57968005      24.94591454       0.02198619       0.04451499       0.07444514
H        9.71647763      17.11629893      23.92419879      -0.01408716       0.06752445       0.01594568
H        9.72095547      15.47186406      24.59413889      -0.01363061       0.03180579       0.04213315
H       11.66469535      16.56340662      22.50390283      -0.14103139      -0.24943567       0.11762637
H        8.66680968      16.60191250      21.91692593       0.02714599       0.00582800      -0.06431531
H       10.07861097      16.95551584      20.88222151      -0.06946784      -0.02318482      -0.01632271
H        8.96858175      15.62028054      20.46339410      -0.04128179       0.14867074      -0.00422727
H       11.80790644      11.99127513      25.22364646       0.07706413      -0.09802230       0.02704983
H       14.16194012      11.65894892      24.43860367       0.02391545      -0.04954898       0.02567552
H       15.12248324      13.34954667      22.87323591       0.00856508       0.02674072      -0.00212584
H       11.84872363      14.42855830      20.65325957       0.12940519       0.22454443      -0.25876513
H       12.01064314      15.46597860      19.22671226      -0.03035237      -0.07404624       0.18189374
H       12.70944673      13.14558046      18.68906109      -0.01387252      -0.08747097      -0.06296651
H       14.10285544      14.23205620      18.58864883       0.02962896      -0.04502382      -0.03195007
H       13.89940617      13.18080672      19.99434708       0.00904834      -0.02619618       0.00042895
H       15.85683370      15.43606977      23.89014695       0.12031190       0.07102435       0.01508988
H       16.83414990      16.72168532      23.17085588       0.01924428      -0.12975610       0.07991113
H       16.07098086      16.17415013      26.19148249      -0.00571353      -0.06772537       0.03550773
H       17.27173666      17.30542773      25.56415522       0.06887684      -0.01712514       0.04991755
H       15.95845014      17.88902436      26.58907435       0.00327169       0.04524364       0.09300862
H       13.73645651      16.10370082      25.17839015      -0.04941226      -0.02424772       0.01018456
H       13.59117077      17.75947396      25.77334158      -0.05458471       0.03212197       0.05203614
H       13.24638572      17.39558472      24.08043670      -0.12081764      -0.02500660       0.00883621
H       14.97629165      19.53451580      24.80915317       0.09910686      -0.16889516      -0.13143976
H       15.01194930      18.99118004      23.11993169       0.10323779       0.01670915       0.18876097
H       19.15621241      19.84465324      23.83722233      -0.05046063       0.22919900       0.05601444
H       18.34022689      22.61078972      23.33494633       0.19933331      -0.20407789      -0.08559936
H       19.43422062      22.18846011      20.78285857       0.24868752      -0.17061743       0.00708370
H       22.17095632      21.78393910      19.77776646      -0.19242901       0.14244068      -0.16511112
H       22.74589274      22.78979665      17.98010674      -0.27243164       0.05897710      -0.13682704
H       20.58647503      24.28610052      16.42839931       0.10457213      -0.02495453       0.05049039
H       22.51204020      25.38659000      15.31162427       0.04202820       0.05032504      -0.05989804
H       23.63996325      24.38923785      16.23161106       0.09841206       0.01075951       0.00285417
H       22.59833285      23.64889365      15.02158689       0.03895319      -0.03235240      -0.08311477
H       20.93754473      25.19292047      18.68540719       0.00173660       0.06622958       0.02603713
H       22.68266596      25.24112816      18.42552312       0.07451053       0.02005311       0.01730777
H       21.61694955      26.28332764      17.47824694       0.01171316       0.08097304       0.03357787
H       24.41610892      18.84004832      16.58986565      -0.10952500      -0.06570618      -0.00125867
H       23.03155121      18.04560646      17.34185329       0.05081679       0.10550566      -0.05149444
H       22.56839332      16.77574053      15.27603521       0.15051290      -0.01008030      -0.02227533
H       24.26972356      16.51451702      15.74817299      -0.19111782       0.11812772      -0.09445396
H       29.47761313      19.54472770      11.44658645      -0.13538748       0.13438266       0.00455730
H       28.49929584      20.98369645      11.06784841      -0.04010345      -0.12185476       0.07306679
H       27.86397610      19.71473697      12.15183475       0.20720794       0.07710327      -0.08616403
H       28.24718549      18.89147117       8.09395913       0.05013325       0.06416073      -0.06398305
H       28.35650959      20.59086809       8.62353487       0.01253646      -0.06310084      -0.02978848
H       29.63019559      19.43306917       9.04013672      -0.02688286       0.03274018      -0.08376744
H       24.93460288      17.88306119       9.16895184       0.00800026       0.04623550      -0.04886570
H       26.01661386      18.67474484       8.02188990       0.01160743      -0.01546149      -0.06728507
H       26.57968689      17.27550243       8.96137742      -0.00565855      -0.01066532       0.00265436
H       26.01675177      21.12112767      10.81141026      -0.00871884       0.03150117      -0.00983228
H       26.08101725      20.96008146       9.04874400      -0.00208373       0.03308885      -0.04318281
H       24.68559512      20.35028256       9.94282411      -0.05562823       0.01149271      -0.00371251
H       23.50593376      19.03681391      12.56274198      -0.22568975      -0.05909867       0.18917056
H       22.12518174      18.28172086      13.40059937       0.14823232       0.09642658      -0.07736333
H       22.29129403      20.65853209      14.02998444       0.03924879       0.08537908       0.04794512
H       23.96366404      20.43073484      14.57615203      -0.02534878       0.01234036      -0.02710509
H       20.29607372      20.76228105      15.30951672       0.11572499       0.06798901       0.00947444
H       19.64715559      22.08621483      16.26838149       0.04197807       0.00170363      -0.09914503
H       20.69884081      22.43643527      14.88353140      -0.08176544      -0.05093104      -0.01817981
H       21.08687320      19.63665406      20.65265911      -0.06184319       0.00280002       0.11930311
H       19.83482039      19.84211221      21.88788722       0.03591517      -0.06195500      -0.01337435
H       18.86967096      18.57732728      20.15693640       0.03130525       0.25993809      -0.01724540
H       17.94398404      21.43972130      19.62055526       0.08008092      -0.16063607       0.19968113
H       17.36730861      20.45722110      20.98343536       0.03824456       0.00931493      -0.10781886
H       16.64933277      19.46342699      16.98993101       0.04111096       0.08166893       0.04081886
H       17.51985551      20.94264777      17.45794186      -0.01342208      -0.13697927      -0.06110154
H       19.11934098      19.17656036      16.69407799      -0.02497551      -0.06296989       0.03216656
H       18.47165090      18.07080700      17.93617379       0.01215035       0.17908090      -0.11039106
H       21.83947178      22.85736538      24.40920678      -0.24082221       0.00027002       0.03396369
H       20.24117939      23.54797333      24.79964223       0.07800547      -0.05524465      -0.01274298
H       20.82687874      21.89746743      26.54206459       0.04714935      -0.04495474       0.00063860
H       21.13547378      20.66523322      25.30889229       0.02115769       0.07924021       0.05182361
H       18.44064868      22.00946843      25.87535905      -0.00175381      -0.10493931      -0.02342155
H       18.86677863      20.32689557      26.23579485      -0.06382036       0.04163171       0.00370482
H       13.33265463      17.05003133      18.15048048      -0.03187596      -0.00232241      -0.04838920
H       14.85858804      18.85241906      17.59918679      -0.01721535       0.03799214       0.00201996
H       16.80754464      18.49472085      21.40978530       0.02672025       0.03583589      -0.01973804
