151
Properties=species:S:1:pos:R:3:MACE_forces:R:3 energy:=T -221.332643508076=T gnorm:=T 0.008835602385=T xtb:=T 6.7.1=T (edcfbbe)=T MACE_energy=-90873.32209950668 pbc="F F F"
C       10.02179075      16.45519666      23.98621017       0.01039263      -0.19544153      -0.39736280
N       11.28590281      13.97115954      24.47115927      -0.25278465       0.07050868       0.07141231
O       10.05523174      14.97566406      22.01512610      -0.02364385       0.00904721       0.14156056
C       10.84968887      15.74759475      22.91364651       0.01813531       0.25154804       0.03276533
N       13.40442614      15.64997596      20.88493743      -0.19250462       0.12487478       0.14290495
O       16.73350389      19.38135012      24.02466654       0.05993685      -0.86214759      -0.06691180
C        9.20994262      15.72268122      21.16626780       0.13005423      -0.07975164       0.15469204
N       19.08433597      21.70629552      23.19722200      -0.32531854       0.17733936      -0.08869446
O       26.56416899      17.12614821      14.01243823      -0.59023348       0.49813748      -0.35043230
C       11.81268829      14.75803168      23.54422234       0.22522696       0.10265959      -0.31617619
N       20.46030138      21.95556673      23.24982738      -0.44658942       0.12415530       0.92953304
O       23.45961659      20.78337851      17.75563011      -0.31929804      -0.12047894      -0.44369641
C       12.04077582      13.05918961      25.05896778       0.06924325      -0.12593220       0.05439266
N       21.20839667      21.80521064      19.73609323       0.55904982      -0.24636597       0.56960854
O       19.46500576      22.62682268      18.55747410       0.08904302       0.09947295      -0.07778302
C       13.37597949      12.86741401      24.74389380       0.04866804       0.02537310       0.00691242
N       21.68841971      21.59692349      16.63984121      -0.34439462       0.43472104       0.05833645
O       19.74400282      19.31298264      18.64545391      -0.00977254       0.08827113       0.08281918
C       13.93720936      13.68636466      23.78140629      -0.18449481      -0.02512344      -0.02816906
N       24.47081508      18.00531069      14.03875027      -0.42238918       0.07835656       0.10179224
O       22.42693893      22.01271121      22.15061911      -0.51816910      -0.17853575      -0.00359278
C       13.15980534      14.66465463      23.16027881      -0.11457644      -0.35193479       0.29058243
N       27.98230194      19.53972225       9.67904105       0.04444679      -0.05461390       0.03804656
O       16.44497390      21.59594315      24.19861089       0.43690453      -0.33366964      -0.07348322
C       13.79891826      15.56803538      22.19982773       0.29676681       0.23619850       0.20150985
N       16.91781097      19.52181449      19.06153456       0.00100455       0.26082812      -0.02337043
C       12.60060661      14.68081597      20.18258877      -0.04303071      -0.47028306      -0.18839647
C       13.47694812      13.59700984      19.55671452      -0.12185706       0.29938115       0.03805155
C       14.83592695      16.44419577      22.44598756      -0.11930799      -0.30449598       0.12095127
C       15.54776023      16.64560957      23.74734220      -0.21086891       0.08073994       0.00643736
C       15.00304589      17.78143844      24.64276083       0.25792965       0.17315667       0.01856339
C       15.66337499      17.67728048      26.02071906      -0.06551128       0.08426750      -0.18164860
C       13.48653594      17.67635905      24.79442576       0.22866348       0.12704626      -0.07993417
C       15.31514681      19.15067459      24.02835308      -0.67322153       0.05014422       0.07377107
C       17.15982486      20.61943893      24.12566841      -0.09559170       1.10705701       0.01765132
C       18.67477406      20.69769930      24.17222156       0.00921964       0.01300799       0.33364322
C       21.21778004      21.81396547      22.15206384       0.63121822       0.14632653      -0.92123080
C       20.45726728      21.38980550      20.89441899      -0.12713622       0.06052243      -0.03927509
C       20.66434555      22.39560002      18.67121124      -0.20963765       0.19811021      -0.21992528
C       21.67161439      22.73300727      17.56660719       0.04242379       0.21868945       0.08718521
C       21.36236694      24.07310840      16.88446307       0.08616416      -0.10385810       0.15799735
C       22.39705381      24.37887172      15.80388387      -0.13765054      -0.11236113       0.10233902
C       21.37117679      25.17776505      17.94038588      -0.18322643      -0.15086553      -0.05406892
C       22.64039630      20.67858240      16.84006868       0.84971208      -0.41098909       0.46435842
C       22.81198846      19.51718318      15.83778937       0.53757574       0.14468650       0.14890479
C       23.88232405      18.55205028      16.34748375      -0.19536965      -0.03002465      -0.10822893
C       24.14176428      17.44385843      15.32877742       0.13596030      -0.19652419       0.43507136
C       25.67891917      17.80212603      13.48455490       0.87470018      -0.87662735       0.65380564
C       25.88836702      18.40113160      12.19030047       0.62739750       0.32682057      -0.92634036
C       26.24605150      18.81766932      11.11805414      -0.48924129      -0.22059917       0.76778747
C       26.53273852      19.33952641       9.78340630      -0.08964466      -0.05082090      -0.27251966
C       28.53799307      20.38606348      10.71404583       0.07712886       0.07905335       0.09597919
C       28.46304476      19.94640324       8.37581689      -0.04432925       0.00006712       0.04711063
C       26.07387832      18.25446865       8.79242715       0.07694858       0.12636103       0.00100462
C       25.68990206      20.61661406       9.57981507       0.17694364      -0.07354788       0.00400210
C       23.45321531      18.87033377      13.49310149      -0.10684512       0.30356974      -0.06868186
C       23.18188601      20.04046947      14.44567408      -0.19419974      -0.36373181       0.03681639
C       20.54359198      21.49260323      15.75962157      -0.26885653       0.00222144      -0.15290282
C       20.24979416      19.86708812      20.93427043      -0.22810855       0.06539708      -0.38198087
C       19.19874353      19.33338854      19.96003462      -0.09834122      -0.03609144       0.28885634
C       17.87935050      20.12575916      19.96068262       0.24527744      -0.04518778       0.04604628
C       17.49254005      19.50141062      17.72850224       0.30566731      -0.14450350      -0.11104233
C       18.82145694      18.73564633      17.73930937      -0.13119636      -0.01074484      -0.12266897
C       21.01094783      22.33074049      24.54282887       0.23744014      -0.15691345       0.00620315
C       20.65765454      21.26166338      25.57539370      -0.15382733       0.19275511      -0.04148499
C       19.14367492      21.05087105      25.59597688       0.08617093      -0.24016844      -0.16342321
C       15.11040346      17.10070618      21.20720773      -0.27882330      -0.23746709      -0.49680237
C       14.20339097      16.57161590      20.26194688       0.39661488       0.48480751       0.10210721
C       14.20727708      17.01970299      18.94759023      -0.01004876      -0.05801743      -0.08011598
C       15.11878108      17.98274682      18.58991448      -0.03707796      -0.09687262      -0.18188231
C       16.07217673      18.50151079      19.49521716      -0.07873460       0.00959073       0.14843860
C       16.05765093      18.04818595      20.80894719       0.15225126       0.09104837      -0.01807480
F       21.61486634      18.78934840      15.73572341      -0.17413067      -0.10252427      -0.04866056
H       10.68605596      16.98964932      24.65628465       0.01631020       0.07374488       0.10112832
H        9.33775259      17.16765143      23.53354502      -0.00242891       0.06531322       0.00772658
H        9.46131084      15.71488721      24.54773077      -0.01294413       0.02530397       0.04498754
H       11.41400312      16.49528702      22.33095099      -0.12378419      -0.23052889       0.15604685
H        8.35519302      16.13753777      21.70714878       0.04211578       0.01079086      -0.06671373
H        9.76162004      16.53526177      20.68178814      -0.04604788      -0.00453958      -0.02373691
H        8.85312627      15.02182095      20.41427421      -0.04590725       0.13386713      -0.01491302
H       11.54427816      12.46266854      25.81149411       0.07404389      -0.10072777       0.04997288
H       13.95733658      12.10529706      25.23914947       0.00156772      -0.01156858       0.00449012
H       14.97143708      13.57048043      23.49185965       0.02798296       0.03154950       0.00585601
H       11.89059238      14.23372432      20.88015897       0.11463589       0.21984864      -0.19584162
H       12.03699122      15.20088548      19.40425487      -0.04686976      -0.06424579       0.18059048
H       12.86433435      12.87086003      19.04026473      -0.10656529      -0.18352959      -0.13108253
H       14.17402607      14.03796463      18.85064625       0.07088812      -0.02093217      -0.07705485
H       14.04640963      13.08900863      20.32556407       0.08066813      -0.10417828       0.12722194
H       15.48702671      15.72332271      24.32610891       0.13389153       0.07175942      -0.00001316
H       16.59897846      16.85176431      23.54062442       0.02756827      -0.12283057       0.10317426
H       15.34612919      16.76325701      26.51867342       0.01167185      -0.02720871       0.02691188
H       16.74650828      17.66467863      25.92400201       0.02666449      -0.00964986       0.06616162
H       15.37861037      18.52449090      26.64409886       0.01606686      -0.00439465       0.05690973
H       13.21561352      16.69205768      25.16799674      -0.04413898      -0.03064581       0.01534682
H       13.12334779      18.42571571      25.49392303      -0.05123476       0.03182862       0.05685147
H       12.99744152      17.82927461      23.83597762      -0.09000036      -0.01968163      -0.02100136
H       14.83989868      19.95540433      24.59847622       0.06907880      -0.23129209      -0.12392116
H       14.96000037      19.19718866      22.99457729       0.06339195       0.05885902       0.19332546
H       19.08870830      19.72998149      23.87426851      -0.04355377       0.21668939       0.05236559
H       18.56429341      22.56623660      23.38263276       0.18161519      -0.20065085      -0.05325702
H       19.49574895      21.90491311      20.87468233       0.32002007      -0.16190687      -0.01868314
H       22.20057222      21.60685686      19.75662722      -0.15224177       0.11115165      -0.14975193
H       22.67308039      22.78507504      18.00479994      -0.27056061       0.02936506      -0.15301705
H       20.36135616      24.03075014      16.44822880       0.12342410      -0.02813380       0.05207567
H       22.13086473      25.29941627      15.28814391       0.05516957      -0.00403353      -0.04604287
H       23.38108782      24.51137539      16.25706377      -0.02278866      -0.02156290      -0.05860365
H       22.46400572      23.57542811      15.07303692       0.04528865       0.02311486      -0.05072776
H       20.59677259      25.00453774      18.68330457      -0.00384106       0.05685233       0.02413136
H       22.33370198      25.21748428      18.44659420       0.07355994       0.03094986       0.00085049
H       21.18543694      26.14070916      17.47171402       0.01818976       0.07219331       0.02570785
H       24.79214506      19.11859977      16.54252665      -0.09277431      -0.08325095      -0.02495174
H       23.54721038      18.11929254      17.29034532       0.04419156       0.11676821      -0.06102921
H       23.24523452      16.82361550      15.22531307       0.14289271       0.02439059      -0.01339064
H       24.97845712      16.82055138      15.64851412      -0.23452656       0.10730303      -0.09725831
H       29.62235767      20.27253140      10.70644672      -0.05432923       0.05487934       0.03312658
H       28.30611843      21.45355775      10.57279751       0.01633853      -0.08201019       0.02801669
H       28.16633013      20.06880133      11.68679350       0.10098281       0.08116971      -0.04075849
H       28.07283776      19.28779851       7.60738130       0.03400619       0.02739825      -0.08643629
H       28.20893657      20.98750133       8.12466645       0.00456306      -0.06443426      -0.03019939
H       29.54879118      19.85668695       8.38013775      -0.03681876       0.04384904      -0.07662083
H       25.09402231      17.88804823       9.08187096      -0.05406805       0.00839185      -0.03760050
H       26.00533150      18.65678516       7.78695544      -0.00107716       0.00711232      -0.09829068
H       26.77566579      17.42633471       8.80543777       0.01494434      -0.03333000       0.00210852
H       25.93338053      21.36311559      10.33200652      -0.02794290       0.01696111      -0.01585375
H       25.87624339      21.03204064       8.59206384      -0.01115546       0.01394632      -0.02716275
H       24.63421710      20.37256280       9.66163066      -0.04792975       0.04473126      -0.00640023
H       23.78250772      19.24364309      12.52350097      -0.13684215      -0.09991541       0.15102771
H       22.53303290      18.29032378      13.36573912       0.09912440       0.10835545      -0.07515690
H       22.37231256      20.64517461      14.04410225       0.03300879       0.08901721       0.03311336
H       24.07386228      20.65833518      14.54552877      -0.02053825       0.01767497      -0.03334945
H       20.40974739      20.48404794      15.39397113       0.10560052       0.03910001      -0.00240923
H       19.65380326      21.76285858      16.32962675       0.06079798      -0.00617486      -0.11005521
H       20.64169794      22.17996500      14.91829389      -0.05288533      -0.04505143      -0.00097408
H       21.20182094      19.38299539      20.70701924      -0.06032611       0.00106952       0.12819049
H       19.94316255      19.58374460      21.93818586       0.04613467      -0.04816534       0.00648644
H       18.97450169      18.28837192      20.24381307       0.01051547       0.22820642      -0.02550481
H       18.07486686      21.12859041      19.56876701       0.02471168      -0.20250810       0.19932605
H       17.47692056      20.21419559      20.96752936       0.00643139       0.03044598      -0.08292983
H       16.81956207      19.04667953      17.00711057       0.05124953       0.07855929       0.04410108
H       17.68103563      20.54026935      17.43803673      -0.02767843      -0.15887290      -0.04857672
H       19.30444013      18.75313014      16.76294966      -0.09939657      -0.04187418       0.05116842
H       18.63426784      17.68924833      18.03082713       0.00064857       0.13996910      -0.11023455
H       22.08797072      22.43656135      24.41739813      -0.19776663       0.02917514       0.03818096
H       20.58286667      23.29492141      24.83750828       0.07034148      -0.05863927      -0.02019901
H       21.00872157      21.57623249      26.55664740       0.04111187      -0.05373295       0.00698700
H       21.15512518      20.32528882      25.31252773       0.03730646       0.07750041       0.04127315
H       18.63768384      21.96668712      25.91455862       0.00134577      -0.11674125      -0.02894334
H       18.87409755      20.24872310      26.28408191      -0.03094147       0.06329766       0.00041499
H       13.50666530      16.63811667      18.22094479      -0.02776902       0.00744645      -0.05404288
H       15.08515673      18.36069095      17.58125220       0.00217786       0.02811333       0.00091464
H       16.77011108      18.40238062      21.53720634       0.02113784       0.02982468      -0.07456808
