151
Properties=species:S:1:pos:R:3:MACE_forces:R:3 energy:=T -221.332565532450=T gnorm:=T 0.008335000946=T xtb:=T 6.7.1=T (edcfbbe)=T MACE_energy=-90873.36704383812 pbc="F F F"
C       10.01451698      16.41693197      24.00637071       0.04283828      -0.23628777      -0.33726051
N       11.31790190      13.95364873      24.46763793      -0.26360684       0.10587077       0.10344808
O       10.05221251      14.94526637      22.03177416       0.01897908       0.03182586       0.19708588
C       10.84648218      15.72870775      22.92409580       0.00802023       0.22538665      -0.02616213
N       13.41323550      15.66030935      20.86187602      -0.14315485       0.06288431       0.23375108
O       16.74413403      19.38109064      24.03431149      -0.02475577      -0.55316495       0.03312550
C        9.15485379      15.68118752      21.22724593       0.17198972      -0.05401104       0.12344737
N       19.13027819      21.68964894      23.18043567      -0.31688736       0.22841907       0.05966450
O       26.43808642      17.04618600      14.04027623      -0.63545599       0.55309368      -0.42607486
C       11.82845330      14.74897233      23.53923785       0.25057447       0.12650262      -0.31092762
N       20.50870392      21.91654089      23.24084576      -0.45255076       0.13172879       0.90903184
O       23.47298480      20.80940665      17.70505824      -0.34465323      -0.19694405      -0.38035167
C       12.08329323      13.04017289      25.03784634       0.07345919      -0.17608926       0.09320928
N       21.25840204      21.79029575      19.72825447       0.55811601      -0.27661234       0.45813795
O       19.51452841      22.66868908      18.59525798       0.09468347       0.08521747      -0.05577643
C       13.41358987      12.85245427      24.69844755       0.02527797       0.06471750      -0.05902487
N       21.69556740      21.66064342      16.62798035      -0.28428332       0.36751795       0.01929668
O       19.76132292      19.29511697      18.62703787       0.03632228       0.13549601       0.06640283
C       13.95899516      13.68379305      23.73690775      -0.17809799      -0.03141653       0.03104834
N       24.36984629      17.98024855      14.01766485      -0.42756727       0.05834062       0.18146358
O       22.47526607      21.97775525      22.14277001      -0.46569132      -0.17206120      -0.00830622
C       13.17159692      14.66848835      23.13851956      -0.12120616      -0.29826585       0.23215908
N       27.96504490      19.44080257       9.71344610       0.00363952      -0.04847772       0.04768434
O       16.48398503      21.61296845      24.09626910       0.43413169      -0.55252193       0.01227278
C       13.80092242      15.58200117      22.17935629       0.24214298       0.25527845       0.20665328
N       16.93700441      19.53154810      19.04772236      -0.02207170       0.21616916      -0.09489024
C       12.58504299      14.70926417      20.16251096      -0.10237487      -0.47399533      -0.20259157
C       13.42721846      13.59713997      19.54019664      -0.09246156       0.17745870       0.05433064
C       14.83698885      16.46066870      22.42526857      -0.14810006      -0.30455329       0.12371278
C       15.54447809      16.66402873      23.72741824      -0.14013795       0.08881573       0.07189780
C       14.99319238      17.79534047      24.62704158       0.25997600       0.18659825       0.00675440
C       15.64204460      17.68108770      26.00945513      -0.03582253       0.07141243      -0.22832436
C       13.47547508      17.69198110      24.76217530       0.22968426       0.10239619      -0.07649424
C       15.32031525      19.16911692      24.02717127      -0.63359253       0.00651312       0.10192057
C       17.18461006      20.62151939      24.08627590      -0.10900836       1.00826656      -0.14617957
C       18.70321251      20.68096125      24.14773831      -0.09889767      -0.01972732       0.25992933
C       21.26619944      21.77988667      22.14225652       0.74858601       0.13225451      -0.94831387
C       20.50537556      21.36575522      20.88285139      -0.18425970       0.05368830      -0.00795373
C       20.71287964      22.42104651      18.68767249      -0.19407403       0.14046212      -0.19772197
C       21.70707206      22.77682168      17.57812457       0.04432316       0.29649294       0.11347507
C       21.39371235      24.13720428      16.93860016       0.08197950      -0.15462086       0.14292994
C       22.40091058      24.46392766      15.83910475      -0.19568753      -0.14753225       0.07635158
C       21.43842712      25.21323995      18.02369149      -0.19687464      -0.15660093      -0.10003617
C       22.63259777      20.72156245      16.80720078       0.90534507      -0.38078162       0.45724651
C       22.75992878      19.55603629      15.80583447       0.51948296       0.00818789       0.11056698
C       23.79020635      18.54983604      16.31973998      -0.13655597       0.09083930      -0.07810017
C       24.00423810      17.43175574      15.30363438       0.10870004      -0.24358634       0.39201243
C       25.58409939      17.74563033      13.48906870       0.96311162      -0.94945799       0.67041812
C       25.83278957      18.34296583      12.20200000       0.61210015       0.26265832      -0.95321497
C       26.19873707      18.75817112      11.13283856      -0.48261382      -0.21587931       0.86479463
C       26.50494543      19.33061107       9.82572755      -0.05095362      -0.06651164      -0.37944517
C       28.58266360      20.20249590      10.77975462       0.04740282       0.05083440       0.10950143
C       28.45602001      19.88177374       8.42473249      -0.03465445      -0.04324377       0.02551236
C       25.96232247      18.34549087       8.77573489       0.05815451       0.07442801       0.00218114
C       25.74711453      20.67209199       9.71455392       0.18728452      -0.04368856       0.02279278
C       23.39170261      18.88420257      13.46451979      -0.11364443       0.32865947      -0.14041161
C       23.15606384      20.06413919      14.41528992      -0.22475022      -0.29181973       0.05667108
C       20.54172501      21.59291197      15.75545061      -0.31058251      -0.06923178      -0.17153113
C       20.28759941      19.84425017      20.90682136      -0.18320710       0.08753819      -0.34650851
C       19.21945873      19.32398643      19.94283262      -0.08622000      -0.02011197       0.25813841
C       17.90658572      20.12787919      19.94501617       0.28899022       0.04569398       0.12751497
C       17.51143667      19.51121340      17.71366640       0.27911114      -0.15967592      -0.11663733
C       18.83151407      18.73286846      17.72017714      -0.18870422      -0.07725192      -0.13257792
C       21.06097600      22.28514576      24.53462036       0.17663532      -0.19509818       0.08963784
C       20.67994652      21.22740887      25.57082678      -0.06983752       0.20748772      -0.07327188
C       19.16370527      21.02552431      25.57543874       0.19698167      -0.18758290      -0.18172487
C       15.11808636      17.11176805      21.18627146      -0.26811098      -0.28240601      -0.46364605
C       14.21656684      16.57667940      20.23830503       0.40199077       0.54628165       0.01680415
C       14.23518750      17.01655979      18.92165710      -0.00331550      -0.04959284      -0.05260597
C       15.15092307      17.97772341      18.56686056      -0.01342506      -0.07480374      -0.18205281
C       16.09311206      18.50641785      19.47751236      -0.10871643       0.01484080       0.17229754
C       16.06844319      18.05830716      20.79337541       0.12629805       0.11929816      -0.12002135
F       21.53884348      18.87300075      15.69867683      -0.18536367      -0.01413635      -0.05662323
H       10.67471829      16.90800362      24.71439842       0.01294115       0.05175605       0.05213628
H        9.35675366      17.16151416      23.56647675      -0.01665671       0.06520576       0.01772336
H        9.42558123      15.66755858      24.52785463      -0.00657021       0.06527876       0.02190896
H       11.39326237      16.48722785      22.33715972      -0.13480687      -0.25202962       0.17268726
H        8.31727732      16.07039672      21.81080618       0.01785894       0.01839017      -0.07051155
H        9.66942761      16.50987245      20.72787663      -0.07260494      -0.02580609      -0.01162087
H        8.78153614      14.97923187      20.48436857      -0.05389931       0.14096342      -0.01939795
H       11.60318089      12.43839398      25.79910867       0.08320207      -0.07019753      -0.00542751
H       14.00210190      12.08295250      25.17094348       0.02913482      -0.04328225       0.04119074
H       14.98904082      13.57107117      23.43201387       0.02347579       0.04048980      -0.00010167
H       11.86218828      14.28384068      20.86065433       0.12463481       0.21223052      -0.25223007
H       12.03645042      15.24400184      19.38201827      -0.03122119      -0.07903350       0.19057583
H       12.79244124      12.92387584      18.97299490      -0.02542558      -0.10052539      -0.06453998
H       14.17778667      14.01901853      18.87602275       0.03480872      -0.04628308      -0.03892158
H       13.93323991      13.02905097      20.31750079       0.01487333      -0.02535774       0.01079377
H       15.48822256      15.73938221      24.30372060       0.12812145       0.07932865       0.01069924
H       16.59598472      16.87684886      23.52637693       0.00933260      -0.13034592       0.09644428
H       15.39495665      16.72427855      26.46188574      -0.01282657      -0.04887519       0.03292315
H       16.72282644      17.76096065      25.92854130       0.04520401      -0.04318459       0.06978761
H       15.28466646      18.47370047      26.66378484       0.00413134       0.04463054       0.06891249
H       13.20315922      16.71197244      25.14717640      -0.05370256       0.00251921       0.00911459
H       13.10428169      18.45158709      25.44728987      -0.06238482       0.00415907       0.03121527
H       12.99590913      17.82959274      23.79618372      -0.09320247      -0.01373780       0.01862765
H       14.85342808      19.97128189      24.60693781       0.07471182      -0.19415997      -0.10932088
H       14.97004245      19.23472079      22.99319237       0.09690527       0.02327590       0.18833305
H       19.11106630      19.71027829      23.84892741      -0.02710313       0.22572319       0.06915336
H       18.62152463      22.55440226      23.37739683       0.17515077      -0.24366781      -0.12982657
H       19.54764789      21.88946463      20.86522225       0.29303705      -0.18967773      -0.01729794
H       22.25006677      21.58158587      19.74026572      -0.24611156       0.16964684      -0.15255859
H       22.71733037      22.81030790      17.99887596      -0.31221103       0.02923186      -0.12580588
H       20.38137744      24.11267566      16.52964905       0.10398894      -0.01086590       0.03372220
H       22.10691363      25.37682669      15.32801321       0.04440907       0.04857094      -0.04834669
H       23.38753965      24.61274715      16.27081064       0.11398201       0.01749609       0.00506845
H       22.47019977      23.66342305      15.10768028       0.03152486      -0.00496694      -0.08591379
H       20.65219011      25.05292133      18.75591005      -0.01544274       0.04195011       0.05320208
H       22.39715928      25.20152571      18.53613121       0.10200132       0.02847945       0.02618853
H       21.29593628      26.19359064      17.57838118       0.00103809       0.09415785       0.02715724
H       24.72323127      19.07964013      16.51048022      -0.10541241      -0.07805050      -0.00826346
H       23.43843627      18.13524420      17.26485190       0.04731291       0.10400183      -0.05670510
H       23.08066227      16.85405049      15.18978771       0.14668791       0.01055971      -0.01620573
H       24.80786615      16.76977328      15.63138094      -0.21737902       0.10657800      -0.09724797
H       29.65044425      19.98618800      10.78367552      -0.03147814       0.05790721       0.02590769
H       28.45490007      21.29018120      10.66540234      -0.00805930      -0.06412423       0.03464279
H       28.16836392      19.89680224      11.73789148       0.14452643       0.08621257      -0.04332534
H       28.06631775      19.24676856       7.63521330       0.04425035       0.06675942      -0.06747906
H       28.20985844      20.93079541       8.20365499       0.00388961      -0.04138519      -0.05026788
H       29.54117340      19.78596569       8.43240022      -0.04307481       0.03257966      -0.07020500
H       24.95717828      18.03638873       9.05178081      -0.00354396       0.04339403      -0.03765804
H       25.92063619      18.81052211       7.79471164       0.00126205      -0.00068467      -0.05321472
H       26.59743756      17.46425435       8.73279488      -0.00321530       0.01197868       0.01496096
H       26.05118456      21.35156648      10.50853823      -0.02570010       0.01459787      -0.04946225
H       25.94564865      21.13412083       8.75017019      -0.01480607       0.02366034      -0.01430038
H       24.67900259      20.49123365       9.80282488      -0.04044288       0.02212770      -0.01378020
H       23.74461647      19.24648897      12.49987009      -0.22185866      -0.07786497       0.16486175
H       22.45169379      18.34065357      13.32734481       0.11022851       0.08994496      -0.07989953
H       22.37153536      20.69975875      14.00847772       0.04408043       0.07821881       0.04425699
H       24.06923958      20.64992182      14.52170803      -0.02251669       0.00824819      -0.02761654
H       20.40090682      20.59695465      15.35701868       0.10636038       0.08816437       0.00783895
H       19.65834167      21.85053164      16.34062423       0.04258180       0.01150389      -0.10170832
H       20.64122102      22.30533676      14.93687550      -0.07913719      -0.05067411      -0.02825636
H       21.23278732      19.35828897      20.65231606      -0.09256773       0.00794011       0.15038070
H       20.00313111      19.54782834      21.91375582       0.03080249      -0.04656540      -0.00528425
H       18.98392852      18.28198601      20.22938428       0.03637398       0.25105431      -0.03337489
H       18.10965271      21.12964601      19.55281448       0.05588198      -0.18836658       0.22510075
H       17.50738141      20.22304868      20.95353092       0.03015992      -0.01002022      -0.10715402
H       16.83427272      19.06650491      16.99057380       0.04621679       0.08401277       0.04459261
H       17.70760291      20.54947579      17.42693114      -0.02046034      -0.15501074      -0.04997554
H       19.31269775      18.75219794      16.74377221      -0.04490402      -0.04334915       0.02107743
H       18.63202323      17.68749181      18.00640193       0.01370832       0.16668821      -0.10919219
H       22.14120462      22.36239611      24.41189763      -0.22334444       0.03671660       0.04920486
H       20.65923702      23.26421513      24.82172119       0.05828258      -0.09581988      -0.01918563
H       21.01848915      21.54753520      26.55556299       0.03586791      -0.06199499      -0.01210421
H       21.17558885      20.28591877      25.32198769       0.01058776       0.10158464       0.05998639
H       18.66203618      21.94214895      25.89627470      -0.02508733      -0.10211940      -0.02933610
H       18.88860187      20.22171226      26.25753130      -0.06978043       0.03971616       0.00975864
H       13.54558382      16.63177422      18.18651829      -0.04026094      -0.01202396      -0.06031357
H       15.12754597      18.34491898      17.55408958      -0.01906954       0.03306621       0.00418748
H       16.77517621      18.41955132      21.52270264       0.01835545       0.03753813      -0.01149742
