151
Properties=species:S:1:pos:R:3:MACE_forces:R:3 energy:=T -221.332237183735=T gnorm:=T 0.008376974988=T xtb:=T 6.7.1=T (edcfbbe)=T MACE_energy=-90873.31728782799 pbc="F F F"
C       10.15721807      16.38655190      23.96482981       0.02150597      -0.16416051      -0.36396694
N       11.40887637      13.87308344      24.30275338      -0.27008198       0.10177668       0.05188203
O       10.13237237      15.00882796      21.92474156       0.00858153       0.01788799       0.17994221
C       10.95781344      15.72712704      22.84202220      -0.00554936       0.21427359       0.02391383
N       13.49366281      15.65722659      20.74483712      -0.16367607       0.10510812       0.18395633
O       16.74337137      19.35712940      23.90319167       0.03521611      -0.72996197      -0.08613532
C        9.24768683      15.80597423      21.16636696       0.13364411      -0.09739157       0.11736925
N       19.08878306      21.70705954      23.15201052      -0.35071466       0.19190878      -0.06986377
O       26.53969240      16.95175335      14.30475210      -0.56323838       0.52559474      -0.46735674
C       11.92429543      14.70094887      23.40484090       0.22505077       0.11700566      -0.31012467
N       20.46485812      21.95424929      23.22293213      -0.50590894       0.08742470       0.92391377
O       23.51443795      20.93123988      17.83165322      -0.31725118      -0.15152868      -0.41900138
C       12.16915918      12.93242198      24.83345110       0.07737776      -0.18165167       0.09182876
N       21.23853247      21.89869333      19.70466341       0.55267655      -0.25197746       0.52809204
O       19.50467786      22.78339116      18.55541288       0.08263505       0.09786037      -0.10116981
C       13.49978509      12.75208180      24.49153797       0.01716879       0.05503403      -0.02449915
N       21.75599022      21.69733712      16.66225039      -0.30861490       0.38083518       0.01133664
O       19.79670775      19.41068646      18.56290427      -0.00606838       0.09989547       0.10926271
C       14.04945435      13.61539446      23.56193734      -0.16936144      -0.03953896      -0.00267627
N       24.46954729      17.88151357      14.29016772      -0.42883375       0.09568705       0.09103371
O       22.42994916      22.08960298      22.13648744      -0.30227194      -0.14920201      -0.01901228
C       13.26489958      14.62185833      22.99779844      -0.11531530      -0.33918746       0.24377011
N       27.64374496      19.78966920       9.91547039       0.05622673      -0.01459713       0.03319141
O       16.43571426      21.56413135      24.17770507       0.38206288      -0.35830379      -0.09344557
C       13.89152312      15.55660598      22.05792869       0.28782654       0.24817273       0.16741823
N       16.96664315      19.59170468      18.97665590       0.01187674       0.25838485      -0.03441725
C       12.67799616      14.69872455      20.04076137      -0.05801167      -0.45587697      -0.18177826
C       13.50592157      13.49520892      19.59502424      -0.06142921       0.17556642       0.02367237
C       14.92797318      16.43063119      22.31503001      -0.16806621      -0.32144294       0.10347629
C       15.63523632      16.60926048      23.62135662      -0.16795246       0.09959468       0.05505650
C       15.07048552      17.71487907      24.54276888       0.24603444       0.16629330       0.00930980
C       15.75755873      17.62097812      25.90864467      -0.05643287       0.07810524      -0.25824805
C       13.56264739      17.55574004      24.72223454       0.23495551       0.13840254      -0.08680100
C       15.33041316      19.09724070      23.93335131      -0.64128613       0.02793901       0.10667433
C       17.15469190      20.59645206      24.05739854       0.05369843       1.02383392       0.01164180
C       18.67254733      20.68037888      24.10535930      -0.05560856       0.00046803       0.31634119
C       21.22837500      21.86629497      22.12326022       0.50349234       0.14215554      -0.88674972
C       20.48431923      21.45919676      20.85159392      -0.14342398       0.06470366      -0.06721908
C       20.69944336      22.52729350      18.65760247      -0.18896391       0.19430475      -0.21391468
C       21.71449075      22.85953103      17.55536224       0.02242239       0.23880609       0.13454512
C       21.40468737      24.17734852      16.83240048       0.08466263      -0.09843318       0.17455357
C       22.46065116      24.46081797      15.76732996      -0.21323406      -0.12800089       0.08187121
C       21.38041956      25.31491753      17.85307615      -0.08697687      -0.22839989      -0.00380075
C       22.70256826      20.78542453      16.91474125       0.82352275      -0.34768258       0.44364189
C       22.86924963      19.56723074      15.98375649       0.56209786       0.10817683       0.15016870
C       23.92283522      18.61767276      16.55785073      -0.23249202      -0.02570194      -0.12235753
C       24.14518610      17.42885429      15.62338346       0.14348419      -0.18700756       0.46946713
C       25.66906166      17.61732275      13.74028208       0.81519612      -0.90368921       0.78274221
C       25.86511069      18.15013860      12.41642628       0.68819432       0.31075056      -1.03843112
C       26.16640159      18.57266484      11.32872123      -0.45767964      -0.26370244       0.88709919
C       26.33452885      19.13111244       9.98995105      -0.04493851      -0.11330566      -0.30453935
C       27.92330798      20.69981529      11.00613604       0.01786347       0.07406192       0.12886848
C       27.93420063      20.41907670       8.64389210      -0.00644996      -0.03351374       0.03071449
C       26.29292045      17.94545176       9.00882808       0.00187668       0.10532817      -0.02014948
C       25.12852032      20.06299921       9.73573265       0.20522099      -0.04603009       0.01626345
C       23.46975095      18.73754665      13.69838394      -0.09406238       0.30825860      -0.11881729
C       23.26229981      19.98469615      14.56390017      -0.20750323      -0.28409411       0.03774496
C       20.63578713      21.56674626      15.75281328      -0.25871148      -0.07495969      -0.16775920
C       20.29035110      19.93388748      20.86342794      -0.18507876       0.07414927      -0.38450721
C       19.24821119      19.40757590      19.87701938      -0.12349037      -0.05233869       0.26519739
C       17.92331992      20.19145656      19.88335984       0.26025261      -0.03926450       0.08012298
C       17.54523714      19.59338885      17.64448533       0.29653707      -0.15414785      -0.08216459
C       18.87951945      18.83866031      17.64867089      -0.15262787      -0.01110771      -0.12494084
C       21.00256230      22.30944063      24.52594357       0.26950948      -0.15468879       0.03640185
C       20.63603336      21.22796999      25.54129873      -0.16380785       0.22573110      -0.04218582
C       19.12315285      21.01187663      25.53816042       0.15078505      -0.23751882      -0.17186000
C       15.19784565      17.10713311      21.08540387      -0.26163560      -0.24660592      -0.49971798
C       14.29454371      16.58365787      20.13236654       0.37930930       0.50280164       0.09724988
C       14.30001474      17.04635648      18.82310577      -0.03037013      -0.06593382      -0.14275365
C       15.20026302      18.02440651      18.47935558      -0.02811893      -0.09535119      -0.16073009
C       16.14214750      18.54687111      19.39440965      -0.09966165      -0.01562717       0.16679552
C       16.13511192      18.07092112      20.70065777       0.14627192       0.11884559      -0.05262808
F       21.66310217      18.85266797      15.91598854      -0.18977180      -0.10741566      -0.03532449
H       10.83831668      16.84075092      24.67719647      -0.00627508       0.05577001       0.06476867
H        9.50319329      17.15696440      23.56667168      -0.00763070       0.06854734       0.01984824
H        9.56674953      15.62761739      24.46896562      -0.00269716       0.02887637       0.03804081
H       11.51693332      16.49581965      22.28153813      -0.12272537      -0.23578001       0.15458711
H        8.42137293      16.18320449      21.77421056       0.03515475       0.02287738      -0.07287173
H        9.77667106      16.64779508      20.70624397      -0.05901563      -0.01303455      -0.01359381
H        8.85326506      15.15181866      20.39119336      -0.03918035       0.14207697      -0.00343066
H       11.68169784      12.30051145      25.56357544       0.08109761      -0.09181130       0.02992028
H       14.08354922      11.96313416      24.93735995       0.02176994      -0.02707501       0.03043750
H       15.07991668      13.51249296      23.25402131       0.02192353       0.03409110      -0.00104223
H       11.86552137      14.36954158      20.68967489       0.13193352       0.17948505      -0.18808151
H       12.24563602      15.19917586      19.17194071      -0.05845482      -0.04911253       0.19010626
H       12.88572808      12.80236957      19.03481233      -0.01497815      -0.10711273      -0.04913982
H       14.33609651      13.81393621      18.96769582       0.01152762      -0.03319974      -0.01695111
H       13.90677527      12.97974677      20.46566349       0.00622180      -0.03576198      -0.01715877
H       15.58946436      15.67106713      24.17603886       0.12489091       0.07588880       0.00488028
H       16.68374908      16.83931634      23.42558553       0.01945398      -0.13350985       0.07920831
H       15.52301977      16.67112781      26.38035026      -0.01598390      -0.07929849       0.05882954
H       16.83582764      17.69796754      25.79952059       0.06082119      -0.02077744       0.05643042
H       15.41515691      18.42197357      26.55984646       0.00066213       0.05019275       0.09659018
H       13.33685778      16.56399887      25.10523009      -0.05498963      -0.04424280       0.01521896
H       13.18271275      18.29373455      25.42441177      -0.04719764       0.04056127       0.06520218
H       13.05216852      17.68530454      23.77247517      -0.09573224      -0.01908742      -0.03174380
H       14.84900852      19.88539847      24.52077898       0.07157857      -0.21643182      -0.12734458
H       14.95399146      19.14231505      22.90734839       0.06367838       0.05670923       0.18775478
H       19.09364468      19.72005281      23.79290253      -0.06479930       0.21967863       0.06300439
H       18.56954343      22.56405730      23.35470596       0.18182945      -0.20332772      -0.06399165
H       19.51994942      21.96840324      20.83138069       0.30335213      -0.16640676      -0.01125515
H       22.22641405      21.67604648      19.70385204      -0.15708828       0.12396471      -0.12040172
H       22.70821507      22.93458201      18.00834209      -0.27025312       0.02524524      -0.16968271
H       20.41437782      24.11374585      16.37594286       0.10685030      -0.02398621       0.04688282
H       22.21247945      25.37412870      15.23369332       0.03984239       0.04940905      -0.06303217
H       23.43477522      24.58823969      16.23411150       0.08527120       0.01311656       0.00332653
H       22.53574587      23.65003835      15.04880201       0.04409986      -0.04427590      -0.09583753
H       20.58960787      25.15775017      18.57990350      -0.04002339       0.05351869       0.05291117
H       22.33076754      25.37400528      18.38509628       0.00813791       0.04606868      -0.04966976
H       21.20016137      26.25971215      17.34931996       0.02624649       0.10686001       0.01308890
H       24.84743789      19.17652413      16.69514545      -0.07973101      -0.07881637       0.00749610
H       23.59115637      18.26566429      17.53480214       0.04444482       0.11175202      -0.07762333
H       23.23547004      16.82085267      15.57874144       0.14718638       0.03152666      -0.01280751
H       24.97257263      16.81462703      15.98352996      -0.23756295       0.10645073      -0.12075867
H       28.97883857      20.96508602      10.96616492      -0.03413353       0.04844981       0.03531224
H       27.33473397      21.62945402      10.96024094       0.04201194      -0.05359947       0.01481399
H       27.72894354      20.20605054      11.95665245       0.07198028       0.12824116      -0.05571215
H       27.74772631      19.72685607       7.82830495       0.01168908       0.05169910      -0.06094775
H       27.35693154      21.34093645       8.47661041       0.02528277      -0.06287518      -0.03986474
H       28.99262484      20.67862774       8.63314493      -0.06188526       0.01871717      -0.07109906
H       25.49709042      17.26217802       9.29165212      -0.04178724       0.00948603      -0.06589822
H       26.10711234      18.28864246       7.99491605       0.00961086      -0.00319397      -0.05560501
H       27.23946614      17.41454807       9.04248210       0.01086994      -0.02601538       0.00547870
H       25.12408229      20.88499506      10.44653672      -0.03143771       0.03733841       0.01202051
H       25.16959165      20.46383379       8.72714462      -0.00815414       0.02869571      -0.06224804
H       24.20639507      19.50037095       9.84903524      -0.07111929       0.01576806      -0.01612518
H       23.78731494      19.02329679      12.69604789      -0.13210149      -0.08572313       0.17381312
H       22.52832713      18.18179240      13.63569198       0.10611771       0.10818063      -0.08374970
H       22.48984693      20.60752042      14.11721191       0.03386584       0.05654026       0.04903681
H       24.18865433      20.55729473      14.62546246      -0.05431488       0.00217964      -0.03771989
H       20.50451382      20.54064538      15.42592800       0.09912513       0.17266417       0.03877307
H       19.73079021      21.87088376      16.28403121       0.10947814      -0.04424020      -0.13734092
H       20.77125113      22.21682227      14.88564637      -0.08524968      -0.07140488       0.03831141
H       21.24939337      19.46447618      20.63124343      -0.08369814      -0.00103404       0.12548060
H       19.98558686      19.62815041      21.86100242       0.03875905      -0.04496442       0.01132474
H       19.02930938      18.35616188      20.14230968       0.01610061       0.24561400      -0.01816601
H       18.11454432      21.19989373      19.50251643       0.01889754      -0.20416136       0.19754440
H       17.51880165      20.26850314      20.89106673       0.01152913       0.02528671      -0.10135580
H       16.87841141      19.14201360      16.91588717       0.04296890       0.07752632       0.03426138
H       17.72428998      20.63695763      17.36746797      -0.02281994      -0.13806824      -0.05186542
H       19.36093797      18.87380980      16.67347435      -0.08674532      -0.05893277       0.03545687
H       18.69966618      17.78723070      17.92531219       0.00369550       0.13529988      -0.10676229
H       22.08192745      22.41018685      24.41364951      -0.21335288       0.03889340       0.03502415
H       20.57846727      23.27235716      24.82999158       0.06161902      -0.05251272      -0.01611515
H       20.97152926      21.53181322      26.53142315       0.04684291      -0.05000171       0.00122631
H       21.13999084      20.29744699      25.27502094       0.05015069       0.04083173       0.03545088
H       18.60871789      21.91883440      25.86301880      -0.01231090      -0.07271728      -0.01044812
H       18.84867884      20.19948654      26.21013169      -0.04530218       0.02854723       0.02828106
H       13.61115279      16.66458408      18.08369025      -0.01395890       0.02165534      -0.00611649
H       15.16576531      18.41209614      17.47457422      -0.00377577       0.02673895       0.00046581
H       16.84264107      18.42661777      21.43251956       0.01533141       0.02568779      -0.05453519
