151
Properties=species:S:1:pos:R:3:MACE_forces:R:3 energy:=T -221.332565532450=T gnorm:=T 0.008335000946=T xtb:=T 6.7.1=T (edcfbbe)=T MACE_energy=-90873.32412459342 pbc="F F F"
C       10.01451698      16.41693197      24.00637071       0.01947048      -0.19255797      -0.35615140
N       11.31790190      13.95364873      24.46763793      -0.27022930       0.06198117       0.10023817
O       10.05221251      14.94526637      22.03177416       0.00666720       0.05804398       0.16670173
C       10.84648218      15.72870775      22.92409580      -0.00037557       0.22292327       0.00422167
N       13.41323550      15.66030935      20.86187602      -0.20082286       0.07183332       0.15779893
O       16.74413403      19.38109064      24.03431149       0.02360559      -0.63235763      -0.01737026
C        9.15485379      15.68118752      21.22724593       0.17601085      -0.08507459       0.13541708
N       19.13027819      21.68964894      23.18043567      -0.35898169       0.16335659      -0.02858677
O       26.43808642      17.04618600      14.04027623      -0.59928969       0.56539916      -0.45747202
C       11.82845330      14.74897233      23.53923785       0.22726389       0.12489228      -0.33910302
N       20.50870392      21.91654089      23.24084576      -0.41247901       0.12556229       0.91424242
O       23.47298480      20.80940665      17.70505824      -0.32688726      -0.12621733      -0.41175278
C       12.08329323      13.04017289      25.03784634       0.09975179      -0.16679962       0.10085362
N       21.25840204      21.79029575      19.72825447       0.59350859      -0.29205280       0.56454827
O       19.51452841      22.66868908      18.59525798       0.10389219       0.10031022      -0.08519443
C       13.41358987      12.85245427      24.69844755       0.01455039       0.06141873      -0.03335931
N       21.69556740      21.66064342      16.62798035      -0.30351012       0.40425245       0.05996629
O       19.76132292      19.29511697      18.62703787       0.00342398       0.11992966       0.08442043
C       13.95899516      13.68379305      23.73690775      -0.18769318      -0.04292651       0.00257203
N       24.36984629      17.98024855      14.01766485      -0.42403057       0.06048868       0.11716554
O       22.47526607      21.97775525      22.14277001      -0.49052596      -0.19023302      -0.00940586
C       13.17159692      14.66848835      23.13851956      -0.11781722      -0.35599635       0.26647141
N       27.96504490      19.44080257       9.71344610       0.01854610      -0.05010738       0.02309919
O       16.48398503      21.61296845      24.09626910       0.48500776      -0.54996381       0.00118561
C       13.80092242      15.58200117      22.17935629       0.30252074       0.26784620       0.17596361
N       16.93700441      19.53154810      19.04772236       0.02401870       0.23938587      -0.03972139
C       12.58504299      14.70926417      20.16251096      -0.06853808      -0.43467219      -0.19100130
C       13.42721846      13.59713997      19.54019664      -0.09548790       0.17962677       0.04622364
C       14.83698885      16.46066870      22.42526857      -0.13944769      -0.32878398       0.14280873
C       15.54447809      16.66402873      23.72741824      -0.16491380       0.08852967       0.06435544
C       14.99319238      17.79534047      24.62704158       0.27999801       0.17366894      -0.02170564
C       15.64204460      17.68108770      26.00945513      -0.05992896       0.08631978      -0.21220059
C       13.47547508      17.69198110      24.76217530       0.21817320       0.13046134      -0.05892488
C       15.32031525      19.16911692      24.02717127      -0.59823458       0.03609199       0.09694971
C       17.18461006      20.62151939      24.08627590      -0.09206838       1.06956111      -0.13107930
C       18.70321251      20.68096125      24.14773831      -0.07184860       0.00933663       0.30308084
C       21.26619944      21.77988667      22.14225652       0.62136758       0.15425184      -0.88688903
C       20.50537556      21.36575522      20.88285139      -0.14595208       0.10334584      -0.08541838
C       20.71287964      22.42104651      18.68767249      -0.23896783       0.19554689      -0.20266604
C       21.70707206      22.77682168      17.57812457       0.05628184       0.26007167       0.11193842
C       21.39371235      24.13720428      16.93860016       0.08692865      -0.13295670       0.15230074
C       22.40091058      24.46392766      15.83910475      -0.22146337      -0.14473485       0.09330453
C       21.43842712      25.21323995      18.02369149      -0.19963267      -0.16615903      -0.09435588
C       22.63259777      20.72156245      16.80720078       0.81377425      -0.37038029       0.41667389
C       22.75992878      19.55603629      15.80583447       0.59431806       0.10616625       0.14850119
C       23.79020635      18.54983604      16.31973998      -0.18640672       0.01184308      -0.09484693
C       24.00423810      17.43175574      15.30363438       0.12871911      -0.24268169       0.43149753
C       25.58409939      17.74563033      13.48906870       0.85813300      -0.93599996       0.76281057
C       25.83278957      18.34296583      12.20200000       0.61388151       0.24749170      -0.89089113
C       26.19873707      18.75817112      11.13283856      -0.46480060      -0.18822857       0.78022124
C       26.50494543      19.33061107       9.82572755      -0.05582240       0.00635463      -0.33244644
C       28.58266360      20.20249590      10.77975462       0.06712263       0.07864300       0.07592309
C       28.45602001      19.88177374       8.42473249      -0.05871768      -0.04010679       0.03976224
C       25.96232247      18.34549087       8.77573489       0.06016248       0.05495796      -0.00478737
C       25.74711453      20.67209199       9.71455392       0.17957587      -0.08867039       0.02039497
C       23.39170261      18.88420257      13.46451979      -0.09092162       0.33755839      -0.07228502
C       23.15606384      20.06413919      14.41528992      -0.20447479      -0.31974168       0.03806239
C       20.54172501      21.59291197      15.75545061      -0.24271892      -0.05272054      -0.13889009
C       20.28759941      19.84425017      20.90682136      -0.20446976       0.06083546      -0.35854675
C       19.21945873      19.32398643      19.94283262      -0.09854030      -0.05271344       0.27654748
C       17.90658572      20.12787919      19.94501617       0.24181151      -0.02253087       0.09052760
C       17.51143667      19.51121340      17.71366640       0.27773194      -0.13308580      -0.08985812
C       18.83151407      18.73286846      17.72017714      -0.14316865      -0.01599196      -0.13193699
C       21.06097600      22.28514576      24.53462036       0.22788107      -0.14081380       0.02988605
C       20.67994652      21.22740887      25.57082678      -0.13303300       0.21244995      -0.05328727
C       19.16370527      21.02552431      25.57543874       0.14682371      -0.23002574      -0.16597335
C       15.11808636      17.11176805      21.18627146      -0.27445241      -0.24901360      -0.46265669
C       14.21656684      16.57667940      20.23830503       0.42090663       0.52133052       0.10695044
C       14.23518750      17.01655979      18.92165710       0.00254733      -0.02939313      -0.11131447
C       15.15092307      17.97772341      18.56686056      -0.06016740      -0.10921387      -0.18304125
C       16.09311206      18.50641785      19.47751236      -0.06655695       0.02719898       0.17358941
C       16.06844319      18.05830716      20.79337541       0.13507623       0.10999774      -0.09020437
F       21.53884348      18.87300075      15.69867683      -0.21658715      -0.11512600      -0.05695378
H       10.67471829      16.90800362      24.71439842      -0.00127824       0.06140085       0.05416903
H        9.35675366      17.16151416      23.56647675      -0.00417847       0.06186113       0.02492515
H        9.42558123      15.66755858      24.52785463       0.01217184       0.04770314       0.02883579
H       11.39326237      16.48722785      22.33715972      -0.12523437      -0.24731721       0.16355592
H        8.31727732      16.07039672      21.81080618       0.01769022       0.02640728      -0.07566566
H        9.66942761      16.50987245      20.72787663      -0.07132322      -0.01422555      -0.01202857
H        8.78153614      14.97923187      20.48436857      -0.04772530       0.13622271      -0.01176072
H       11.60318089      12.43839398      25.79910867       0.08064636      -0.07146389      -0.00523269
H       14.00210190      12.08295250      25.17094348       0.02428178      -0.02862605       0.03510448
H       14.98904082      13.57107117      23.43201387       0.03342093       0.04311065      -0.00142658
H       11.86218828      14.28384068      20.86065433       0.12213406       0.21895957      -0.20942181
H       12.03645042      15.24400184      19.38201827      -0.02665871      -0.07958644       0.19605082
H       12.79244124      12.92387584      18.97299490      -0.02015956      -0.10801112      -0.06310945
H       14.17778667      14.01901853      18.87602275       0.03298603      -0.04694940      -0.04069937
H       13.93323991      13.02905097      20.31750079       0.01510265      -0.02412682       0.01175324
H       15.48822256      15.73938221      24.30372060       0.12619469       0.08369352      -0.00526408
H       16.59598472      16.87684886      23.52637693       0.00978069      -0.13587891       0.09054085
H       15.39495665      16.72427855      26.46188574      -0.01743955      -0.05442935       0.05110215
H       16.72282644      17.76096065      25.92854130       0.04800297      -0.04532066       0.06256460
H       15.28466646      18.47370047      26.66378484      -0.00019516       0.04028881       0.08025647
H       13.20315922      16.71197244      25.14717640      -0.04893717      -0.01597077       0.01324463
H       13.10428169      18.45158709      25.44728987      -0.05111625       0.01030543       0.04524562
H       12.99590913      17.82959274      23.79618372      -0.07755240      -0.01780877      -0.00345260
H       14.85342808      19.97128189      24.60693781       0.05918120      -0.20530044      -0.12389916
H       14.97004245      19.23472079      22.99319237       0.05685817       0.04292713       0.17860709
H       19.11106630      19.71027829      23.84892741      -0.06504529       0.22452048       0.06324855
H       18.62152463      22.55440226      23.37739683       0.18900177      -0.20128297      -0.09667262
H       19.54764789      21.88946463      20.86522225       0.33158003      -0.19160544      -0.01538001
H       22.25006677      21.58158587      19.74026572      -0.22049675       0.13843424      -0.15803761
H       22.71733037      22.81030790      17.99887596      -0.29628952       0.03135944      -0.14150004
H       20.38137744      24.11267566      16.52964905       0.10987322      -0.02460850       0.03099149
H       22.10691363      25.37682669      15.32801321       0.04793319       0.04811610      -0.05612869
H       23.38753965      24.61274715      16.27081064       0.10302834       0.00694381       0.00067688
H       22.47019977      23.66342305      15.10768028       0.03622506      -0.02043135      -0.09064820
H       20.65219011      25.05292133      18.75591005      -0.01225778       0.04038220       0.04646558
H       22.39715928      25.20152571      18.53613121       0.10843121       0.03239241       0.01906904
H       21.29593628      26.19359064      17.57838118       0.00835334       0.09593452       0.01678902
H       24.72323127      19.07964013      16.51048022      -0.10958779      -0.08763870      -0.01591758
H       23.43843627      18.13524420      17.26485190       0.04634795       0.11202654      -0.06813150
H       23.08066227      16.85405049      15.18978771       0.15384574       0.02484585      -0.00492581
H       24.80786615      16.76977328      15.63138094      -0.23412873       0.12484376      -0.11575097
H       29.65044425      19.98618800      10.78367552      -0.01879290       0.06190645       0.03056254
H       28.45490007      21.29018120      10.66540234      -0.00417086      -0.07752656       0.02954262
H       28.16836392      19.89680224      11.73789148       0.10007588       0.06013609      -0.01621626
H       28.06631775      19.24676856       7.63521330       0.03482803       0.04973625      -0.07202643
H       28.20985844      20.93079541       8.20365499       0.01672550      -0.04115156      -0.04152073
H       29.54117340      19.78596569       8.43240022      -0.04440854       0.03078651      -0.06904573
H       24.95717828      18.03638873       9.05178081      -0.00376361       0.03621492      -0.05168098
H       25.92063619      18.81052211       7.79471164       0.00276626       0.00086664      -0.04894270
H       26.59743756      17.46425435       8.73279488      -0.00440639       0.01034940       0.00388905
H       26.05118456      21.35156648      10.50853823      -0.03429667       0.00561866      -0.04927132
H       25.94564865      21.13412083       8.75017019      -0.01599968       0.02242211      -0.01774772
H       24.67900259      20.49123365       9.80282488      -0.03735754       0.05972218      -0.01066871
H       23.74461647      19.24648897      12.49987009      -0.14055292      -0.09143196       0.12401184
H       22.45169379      18.34065357      13.32734481       0.08996470       0.09320347      -0.07525380
H       22.37153536      20.69975875      14.00847772       0.04958161       0.06385162       0.04770401
H       24.06923958      20.64992182      14.52170803      -0.02921147       0.00798933      -0.04006355
H       20.40090682      20.59695465      15.35701868       0.08908067       0.07291624       0.01313503
H       19.65834167      21.85053164      16.34062423       0.05104851      -0.00408049      -0.11133114
H       20.64122102      22.30533676      14.93687550      -0.05842846      -0.02249622      -0.02311424
H       21.23278732      19.35828897      20.65231606      -0.08186392       0.00789073       0.14862103
H       20.00313111      19.54782834      21.91375582       0.03292508      -0.04135973       0.00028051
H       18.98392852      18.28198601      20.22938428       0.02286305       0.22834746      -0.02906374
H       18.10965271      21.12964601      19.55281448       0.02091740      -0.21050858       0.19882174
H       17.50738141      20.22304868      20.95353092       0.01342376       0.02027044      -0.10950573
H       16.83427272      19.06650491      16.99057380       0.04719617       0.07722584       0.03569726
H       17.70760291      20.54947579      17.42693114      -0.02348830      -0.15127692      -0.04570904
H       19.31269775      18.75219794      16.74377221      -0.09109574      -0.05414641       0.03298022
H       18.63202323      17.68749181      18.00640193       0.00906089       0.13056216      -0.10808488
H       22.14120462      22.36239611      24.41189763      -0.20957086       0.03886203       0.05059103
H       20.65923702      23.26421513      24.82172119       0.06364523      -0.10271906      -0.01873108
H       21.01848915      21.54753520      26.55556299       0.04220718      -0.06668684      -0.01842203
H       21.17558885      20.28591877      25.32198769       0.02130767       0.08044229       0.04765651
H       18.66203618      21.94214895      25.89627470      -0.01680813      -0.09596580      -0.02902247
H       18.88860187      20.22171226      26.25753130      -0.05665810       0.04227625       0.02690287
H       13.54558382      16.63177422      18.18651829      -0.04004658      -0.00734565      -0.04628665
H       15.12754597      18.34491898      17.55408958      -0.00271995       0.02975207       0.00329369
H       16.77517621      18.41955132      21.52270264       0.02306770       0.02201730      -0.03702159
