151
Properties=species:S:1:pos:R:3:MACE_forces:R:3 energy:=T -221.332255099817=T gnorm:=T 0.004850674991=T xtb:=T 6.7.1=T (edcfbbe)=T MACE_energy=-90873.39600329683 pbc="F F F"
C       10.28434022      16.36143773      24.14179716       0.04203570      -0.17320532      -0.36600585
N       11.44864162      13.79129613      24.24518511      -0.26740231       0.15453728       0.09024638
O       10.17899364      15.19773830      21.97948699       0.02329951      -0.05013177       0.20396846
C       11.04738076      15.77939647      22.95138589      -0.00397308       0.23754009       0.03851316
N       13.44956463      15.71523291      20.75162398      -0.12279008       0.10509182       0.26703418
O       16.82600576      19.26465955      24.03269382       0.10381761      -0.65402614       0.04442853
C        9.42468064      16.12387364      21.22748757       0.14788972      -0.05296956       0.12139338
N       18.96753085      21.79110621      23.10603493      -0.34356833       0.21285136      -0.00184505
O       26.05518199      16.70057214      14.08694341      -0.53754321       0.58442874      -0.35236749
C       11.97493808      14.66484383      23.39974201       0.25146780       0.13658869      -0.29916121
N       20.31575608      22.15620734      23.18603126      -0.48081366       0.12774928       0.89532915
O       23.35933505      20.66517558      17.68189378      -0.36410052      -0.17307337      -0.38767949
C       12.18470324      12.78580269      24.68338380       0.07961389      -0.20540524       0.06537882
N       21.21685997      21.94594169      19.69604423       0.46843900      -0.20655622       0.43975180
O       19.54621603      22.86365610      18.48370765       0.09094829       0.07363437      -0.05750911
C       13.50209715      12.58883386      24.30079386       0.00845424       0.06113810      -0.04473334
N       21.66186339      21.64275089      16.58281641      -0.28563442       0.40537535      -0.00559850
O       19.64116936      19.55609007      18.59544606       0.05525371       0.10145241       0.07942364
C       14.06066201      13.49446358      23.41755761      -0.14644931       0.01500237       0.01728064
N       24.03263787      17.73010173      14.02828707      -0.42236000       0.06469259       0.11451520
O       22.30884393      22.32171722      22.14730249      -0.45428263      -0.20010651       0.00184924
C       13.29896813      14.56243206      22.94415141      -0.10667654      -0.30007326       0.20893481
N       27.90288688      19.39792969      10.04703236       0.01126651      -0.04534354       0.09359622
O       16.31803684      21.44810444      24.05143186       0.48193869      -0.42749517      -0.03458444
C       13.91196748      15.53642811      22.03549152       0.20919497       0.22490563       0.20897331
N       16.81868513      19.76786936      19.05337671      -0.08214038       0.21502428      -0.06127496
C       12.61766806      14.78630687      20.02722785      -0.12646990      -0.52660615      -0.21013845
C       13.43303602      13.59335849      19.53023565      -0.12312476       0.19897182       0.01894946
C       14.95722329      16.39857781      22.29401187      -0.12682494      -0.31552553       0.09380939
C       15.77426164      16.47050603      23.54606101      -0.13532383       0.09663518       0.09295859
C       15.29440991      17.46870415      24.62285878       0.22965266       0.18551691       0.02612796
C       16.14276052      17.27274073      25.88281895      -0.05590457       0.04981079      -0.24731182
C       13.82229145      17.23917943      24.95908759       0.22370922       0.10796292      -0.12978277
C       15.43720629      18.91094510      24.12440925      -0.68611378      -0.03821456       0.13038627
C       17.12824619      20.54445808      24.04407178      -0.23704518       1.05753768      -0.13544895
C       18.62785000      20.77435893      24.09813796      -0.07780870      -0.08197294       0.31482041
C       21.11619283      22.04528308      22.11391891       0.76472454       0.14914694      -0.94750178
C       20.41617490      21.57833037      20.83692122      -0.14815855       0.01879243      -0.00444940
C       20.72444914      22.54897043      18.61163089      -0.16702004       0.12616075      -0.20377299
C       21.76377602      22.77504586      17.50762274       0.06079086       0.25805927       0.10904702
C       21.61433618      24.13997883      16.82214567       0.06460374      -0.12916654       0.15379068
C       22.67800036      24.30980836      15.73960428      -0.21321307      -0.10424879       0.09812166
C       21.76122746      25.23726247      17.87563310      -0.19902383      -0.14273885      -0.06189320
C       22.51838504      20.63428525      16.78036161       0.90302440      -0.47723620       0.49639460
C       22.56045573      19.45226389      15.79106460       0.50206281      -0.02894237       0.13256790
C       23.49928680      18.36732596      16.32123642      -0.13034470       0.07693257      -0.09353987
C       23.62147912      17.22164747      15.31689160       0.09110461      -0.19606632       0.40902726
C       25.25694515      17.46344229      13.53895945       0.78194690      -1.05129833       0.61503256
C       25.58265118      18.11018295      12.29423547       0.79748728       0.32856098      -0.92046337
C       26.04534761      18.59104475      11.29137835      -0.60062463      -0.26191116       0.79445212
C       26.44124600      19.24038183      10.04643763       0.00375458      -0.10515451      -0.40057376
C       28.43863879      19.94977693      11.27425305       0.02466250       0.01869406       0.18463574
C       28.44085274      20.08947881       8.89368377      -0.00405055      -0.05818313       0.04278294
C       26.02109969      18.29120929       8.91029694       0.02741908       0.09525382       0.01985484
C       25.65276310      20.56380308       9.93896381       0.19031455      -0.04843111      -0.00199908
C       23.12830716      18.70396995      13.46716354      -0.10333762       0.33787511      -0.15341470
C       23.00982391      19.91317047      14.40135906      -0.23902595      -0.25893889       0.02768929
C       20.51235076      21.66031104      15.70142802      -0.26209002      -0.05122981      -0.14909557
C       20.18025382      20.06010065      20.88867337      -0.17864037       0.08488623      -0.35826788
C       19.11587729      19.54766013      19.91812019      -0.11326703      -0.01692011       0.25706841
C       17.79593387      20.33967958      19.95669699       0.30094372       0.00344410       0.11768986
C       17.37838608      19.78028362      17.71300156       0.32145913      -0.16820610      -0.12993630
C       18.70223982      19.00813675      17.68965843      -0.23368936      -0.05770958      -0.16590279
C       20.79371503      22.61683914      24.47995530       0.20337273      -0.20347783       0.08924711
C       20.50815211      21.55347233      25.53941813      -0.11933319       0.22247612      -0.07363439
C       19.02048201      21.20449553      25.52356256       0.21981849      -0.16448430      -0.18091450
C       15.15817206      17.15566117      21.09897412      -0.29882551      -0.21974213      -0.49907193
C       14.21123010      16.68672837      20.16044145       0.38254806       0.52515072       0.04013577
C       14.14590885      17.23361507      18.88546007      -0.02513398      -0.07203574      -0.07315257
C       15.02547124      18.23612283      18.56098337       0.01629788      -0.05242726      -0.14737214
C       16.01107763      18.70279054      19.45966261      -0.11207590      -0.00008333       0.14532100
C       16.06654497      18.15426164      20.73453839       0.11728694       0.11738973      -0.07686889
F       21.28856066      18.86995955      15.67252428      -0.17467190       0.00824469      -0.04048800
H       10.98914485      16.69408098      24.89722740       0.01497190       0.04619058       0.06680350
H        9.67819964      17.20763207      23.83030425      -0.01465951       0.06354989       0.01269686
H        9.64777995      15.59054605      24.56433134      -0.01571429       0.03389314       0.04252290
H       11.63683967      16.57270023      22.46288170      -0.14124988      -0.23648085       0.12788956
H        8.65874198      16.61203378      21.83515370       0.02152302       0.00443458      -0.05812429
H       10.07514363      16.88557035      20.78263028      -0.06850753      -0.01973132      -0.01301195
H        8.94626532      15.54474068      20.44119085      -0.04479749       0.14005566      -0.02568576
H       11.68952626      12.11533128      25.37222872       0.07868905      -0.09727897       0.03493943
H       14.06908374      11.75373998      24.67892978       0.02065621      -0.05259551       0.02860086
H       15.07914126      13.37752097      23.07653245       0.01618033       0.03020478      -0.00535438
H       11.80727608      14.44288108      20.67389054       0.16402146       0.18989195      -0.23827400
H       12.18199147      15.31912186      19.17906498      -0.05231765      -0.06021198       0.19916747
H       12.80541961      12.93548844      18.93714903      -0.02231750      -0.09873466      -0.05309639
H       14.26407720      13.93533982      18.91837782       0.05250580      -0.03663820      -0.03995063
H       13.82821506      13.03153837      20.37310050       0.01859441      -0.03890351       0.00602454
H       15.79326594      15.48239891      24.00905082       0.12320339       0.07265885       0.01284460
H       16.79750121      16.73728914      23.27369216       0.01286215      -0.12428006       0.08406772
H       15.97384358      16.28089871      26.29363909      -0.00421926      -0.05971761       0.03276166
H       17.19940309      17.37737173      25.65153664       0.04721266      -0.01208008       0.05808203
H       15.87741316      18.00790075      26.63882267       0.00358422       0.05074976       0.09241771
H       13.65991096      16.20378036      25.24675452      -0.05004106      -0.03068932       0.01042516
H       13.51679365      17.87959971      25.78296576      -0.05840385       0.03280190       0.05113345
H       13.19951716      17.46093487      24.09729206      -0.11942996      -0.02217008       0.00351376
H       14.95507199      19.61229970      24.81335273       0.09178691      -0.17388462      -0.12723547
H       14.97925219      19.02988557      23.13788569       0.11799395       0.01006782       0.17962781
H       19.14139018      19.84252820      23.84168048      -0.04682350       0.22606696       0.04437404
H       18.36991050      22.60548512      23.25988055       0.19605898      -0.20057809      -0.08494719
H       19.46679103      22.11048702      20.75683822       0.25937851      -0.16982172       0.00837193
H       22.19248832      21.68221238      19.72535489      -0.18029841       0.13663960      -0.12646168
H       22.76349168      22.71778859      17.94921748      -0.28584027       0.05622119      -0.14165072
H       20.61469080      24.21837038      16.38873292       0.09924536      -0.02611048       0.04408809
H       22.56688819      25.27758446      15.25908825       0.03554116       0.05440139      -0.06057948
H       23.66973803      24.25654262      16.18324474       0.09932298       0.01206319       0.00403096
H       22.60684767      23.53645639      14.98047532       0.03540981      -0.03137959      -0.08381251
H       20.97079385      25.16309868      18.61863672       0.00368766       0.05983920       0.03305753
H       22.72026683      25.15625087      18.38272794       0.07913531       0.02024092       0.01891185
H       21.69953647      26.21447029      17.40491857       0.00719082       0.08107287       0.03464921
H       24.47376100      18.81859714      16.50741644      -0.11253199      -0.07024354       0.00017042
H       23.11228027      17.99585437      17.27030641       0.05033479       0.10090227      -0.05385661
H       22.65478034      16.72043554      15.20791139       0.14126300      -0.00665545      -0.02743852
H       24.36893221      16.50112811      15.65227784      -0.19475986       0.11004326      -0.09015068
H       29.52600558      19.93064301      11.21301243      -0.05252531       0.02431525       0.02706979
H       28.12545447      20.98966907      11.46153089       0.05135575      -0.07541821      -0.00796243
H       28.13048254      19.33403978      12.11824291       0.13028831       0.15192462      -0.05883587
H       28.06511732      19.64110058       7.97992834       0.02291135       0.06932395      -0.08143296
H       28.21944284      21.16609589       8.88877456      -0.01117402      -0.01799566      -0.04447312
H       29.52342900      19.96949428       8.90887864      -0.03669676       0.04356034      -0.06860916
H       24.99267998      17.97286662       9.06213936      -0.00909341       0.03517976      -0.04106650
H       26.08876850      18.78675149       7.94657258       0.00045591       0.01727933      -0.06842012
H       26.66398673      17.41552779       8.91176068      -0.00042075      -0.00149404       0.00555637
H       25.88450666      21.21696661      10.77654032      -0.01316858       0.04453425      -0.00928171
H       25.90082146      21.07129846       9.01085312      -0.01797481       0.03135773      -0.03818199
H       24.58705907      20.35419203       9.94615350      -0.05629829       0.00045874      -0.00805727
H       23.49457779      19.01559623      12.48916770      -0.22487486      -0.06653961       0.20126260
H       22.14451647      18.23702963      13.35528085       0.13883286       0.09436049      -0.08273441
H       22.29802359      20.62347837      13.98522185       0.03244959       0.07518947       0.05061795
H       23.97903477      20.40204570      14.50643411      -0.03947724       0.00828807      -0.02595436
H       20.31946558      20.68614723      15.27534972       0.10305463       0.04285555       0.01085898
H       19.64172692      21.95647601      16.28537462       0.00725638       0.02326414      -0.08525971
H       20.66146636      22.38301532      14.90138673      -0.07619108      -0.02180754      -0.05672071
H       21.12221325      19.55853937      20.65675189      -0.06813137       0.00294444       0.12469378
H       19.87303429      19.78085820      21.89212021       0.03605227      -0.05715139      -0.00649983
H       18.89524322      18.49646843      20.18143329       0.03922831       0.25714317      -0.02552840
H       17.98622746      21.35346898      19.59129122       0.07678894      -0.15500596       0.19934702
H       17.40514834      20.40052754      20.97113992       0.03130972       0.00434614      -0.10940924
H       16.69582026      19.34133863      16.99115721       0.04358491       0.08520256       0.04338545
H       17.56459102      20.82447815      17.44280673      -0.01169346      -0.14742072      -0.05005430
H       19.16777868      19.04765113      16.70729435      -0.03182807      -0.05997930       0.03220242
H       18.51028141      17.95640006      17.95766981       0.01628936       0.17355158      -0.10716599
H       21.86012426      22.81544296      24.38024584      -0.21282076       0.01029352       0.02426393
H       20.27185944      23.54648866      24.73008956       0.06860358      -0.03276887      -0.00604736
H       20.79613576      21.93110911      26.51902326       0.04619509      -0.04343575       0.01283173
H       21.09814233      20.66152211      25.32398696       0.03500919       0.05903465       0.04461111
H       18.42404068      22.07672624      25.80226887      -0.01173668      -0.09656641      -0.01563660
H       18.80443508      20.39905017      26.22474851      -0.05563566       0.02531643       0.00498133
H       13.41784767      16.89904571      18.16238723      -0.03083767       0.00123703      -0.04539647
H       14.94067204      18.69208178      17.58821949      -0.01943770       0.03090851       0.00091638
H       16.79987588      18.47900995      21.45526552       0.03018044       0.03173216      -0.02618633
