151
Properties=species:S:1:pos:R:3:MACE_forces:R:3 energy:=T -221.332260747321=T gnorm:=T 0.008962713226=T xtb:=T 6.7.1=T (edcfbbe)=T MACE_energy=-90873.32086924162 pbc="F F F"
C       10.04811185      16.53936641      23.93489728       0.02057432      -0.22004783      -0.33246664
N       11.24923903      14.01134590      24.47670414      -0.26736103       0.10184781       0.03855109
O       10.00871819      14.95989908      22.04517377       0.03271344       0.05177810       0.15508735
C       10.84197131      15.76049562      22.88546892      -0.02439174       0.22807726      -0.02575711
N       13.39681366      15.64303251      20.89984670      -0.14824273       0.11807517       0.13773844
O       16.72942484      19.37174694      24.00370137       0.01350104      -0.72926469      -0.10905947
C        9.17249619      15.68101106      21.16600114       0.14217427      -0.09611907       0.16280686
N       19.07876525      21.68016079      23.23164756      -0.32786723       0.17601008      -0.09684604
O       26.57460354      17.20433635      14.05103780      -0.54722085       0.50475940      -0.37828418
C       11.79395338      14.77925658      23.54388158       0.22248412       0.10204290      -0.30259064
N       20.45555479      21.92823501      23.26775133      -0.44544119       0.14495160       0.94375750
O       23.51663569      20.87088991      17.69011916      -0.31535049      -0.13137203      -0.36314237
C       11.98834164      13.10052318      25.08399139       0.10272618      -0.14616219       0.09398371
N       21.19176538      21.80203131      19.74291209       0.51831708      -0.23896180       0.57012268
O       19.45862205      22.67452407      18.58992641       0.07109619       0.10641271      -0.08318445
C       13.32593400      12.89230073      24.78861784       0.02379058       0.04940812      -0.05209910
N       21.68047120      21.64091323      16.65131493      -0.37942457       0.39677016       0.07647327
O       19.72461291      19.31981054      18.65293509      -0.01281956       0.10125745       0.08894132
C       13.90601966      13.69360223      23.82205271      -0.14931914      -0.01978806      -0.01055254
N       24.46997187      18.04998723      14.02121712      -0.44627250       0.04856976       0.14063994
O       22.40309869      22.04262644      22.14345376      -0.45567243      -0.19568350       0.00683373
C       13.14574794      14.67117919      23.17921626      -0.11577539      -0.32775036       0.26838280
N       28.01456021      19.45994090       9.64151300       0.02813312      -0.03465874       0.03837623
O       16.46263125      21.57476021      24.35336856       0.48897251      -0.49360350      -0.12066511
C       13.79965377      15.55985355      22.21345832       0.26791762       0.22465092       0.17948069
N       16.89512308      19.52247270      19.06060455       0.00836278       0.23369365      -0.02998621
C       12.57467521      14.68491088      20.20325671      -0.04559008      -0.45783709      -0.18689915
C       13.42912329      13.60955671      19.53350879      -0.11424137       0.21509850       0.04041546
C       14.84084938      16.43422395      22.45157527      -0.12567342      -0.32150740       0.11506050
C       15.56829502      16.63578933      23.74418311      -0.16289685       0.08007998       0.06119655
C       15.02444496      17.76008288      24.65627134       0.23334424       0.14909724       0.00380226
C       15.71134170      17.66482672      26.02181234      -0.08839237       0.09945936      -0.29581912
C       13.51306522      17.63003670      24.83532900       0.23704693       0.12867912      -0.08995431
C       15.31033405      19.13453002      24.03933277      -0.59378779       0.04669069       0.11883653
C       17.16535351      20.59811942      24.19138004      -0.09493140       1.11243024       0.04215300
C       18.68494104      20.66275372      24.20412367      -0.05031297      -0.06185531       0.34722762
C       21.19900436      21.81815141      22.15750483       0.60356958       0.16195052      -0.93752461
C       20.43670467      21.39265899      20.90199929      -0.12993597       0.05189779      -0.06113060
C       20.65487208      22.42524117      18.69230560      -0.18680141       0.15621521      -0.22446189
C       21.66341318      22.76768011      17.58855139       0.04594733       0.27042400       0.09512596
C       21.35128001      24.11446496      16.91997664       0.07018187      -0.10813532       0.13531080
C       22.34658924      24.41309783      15.80135614      -0.21759646      -0.16626453       0.15543347
C       21.41652050      25.21730083      17.97632238      -0.17785649      -0.17423534      -0.05298028
C       22.65991663      20.74396587      16.81343532       0.84941937      -0.39037259       0.37080726
C       22.81543503      19.57577285      15.81601928       0.56729318       0.13719643       0.16350541
C       23.88152241      18.60446352      16.32548816      -0.18761488      -0.01117915      -0.12718073
C       24.12503310      17.49084222      15.30913594       0.15515942      -0.17443622       0.43473680
C       25.69427867      17.86577741      13.49714565       0.84797115      -0.89945252       0.69693765
C       25.91962723      18.44791001      12.19903545       0.59864546       0.30421505      -1.09018525
C       26.26389209      18.81307393      11.10288389      -0.44560252      -0.13017174       0.97302578
C       26.55997535      19.28848219       9.75461983      -0.05600592      -0.09497175      -0.31429865
C       28.58904650      20.31428912      10.66061214      -0.03257842       0.02903947       0.08104504
C       28.48948503      19.83892508       8.32725898      -0.04271276      -0.02546345       0.01871862
C       26.08437756      18.17485109       8.80513119       0.06274139       0.07914241      -0.02456647
C       25.73771170      20.56979051       9.50144089       0.17330312      -0.09095166       0.04163534
C       23.45935112      18.91911328      13.47104693      -0.10888313       0.33004528      -0.10374429
C       23.19060307      20.09175331      14.42242754      -0.17955816      -0.32930576       0.02938013
C       20.52265573      21.53228226      15.78745041      -0.22521821      -0.05452012      -0.14420958
C       20.22359979      19.87032713      20.94209897      -0.19636904       0.06441705      -0.35737181
C       19.17480205      19.33800544      19.96586851      -0.12998290      -0.03740576       0.25858535
C       17.85499818      20.13075054      19.95862641       0.27603357      -0.05134646       0.03892289
C       17.47087608      19.49329419      17.72820581       0.31352579      -0.14801406      -0.11203665
C       18.80863043      18.74146606      17.74191501      -0.16522954      -0.01364350      -0.10721317
C       21.01881716      22.30215454      24.55542287       0.22703327      -0.17465439       0.01300526
C       20.69051781      21.22003518      25.58218850      -0.15789013       0.21573857      -0.02385345
C       19.17962934      20.99322139      25.62342923       0.13178011      -0.20429354      -0.18265544
C       15.10626099      17.09102511      21.21111954      -0.25995705      -0.23357899      -0.47929009
C       14.19198943      16.56482476      20.27170690       0.38696970       0.47836098       0.11245356
C       14.18263339      17.02114263      18.95996433      -0.01662445      -0.05632093      -0.10336082
C       15.08974326      17.98696819      18.59912159      -0.01151486      -0.08190785      -0.17235194
C       16.05318719      18.49941648      19.49757505      -0.08546961       0.01318797       0.17283022
C       16.05069939      18.04012065      20.80918091       0.17748397       0.11154488      -0.01443414
F       21.61484770      18.85402224      15.72107603      -0.18289713      -0.10715049      -0.06235513
H       10.73500543      17.05559879      24.59810922      -0.00492453       0.06642271       0.06000374
H        9.40544237      17.27390632      23.45731802      -0.00558939       0.06182720       0.02703171
H        9.44549469      15.84552825      24.51414454       0.01469459       0.02989053       0.01612260
H       11.40793897      16.46591851      22.25362308      -0.13589938      -0.23121935       0.19233624
H        8.38643966      16.21843695      21.70173113       0.01376874       0.00365300      -0.06303822
H        9.75308700      16.39116011      20.56743383      -0.04810448       0.00114328      -0.01856566
H        8.71888515      14.93443113      20.51710015      -0.02897842       0.15184468      -0.03841563
H       11.47836549      12.51753672      25.83770321       0.06267407      -0.10356036       0.06122531
H       13.89238948      12.12773768      25.29533676       0.01794671      -0.02508749       0.02968958
H       14.94300440      13.56365305      23.54695616       0.01037748       0.03270746       0.00454168
H       11.88578980      14.22442163      20.91331492       0.09346250       0.23085675      -0.19088755
H       11.98868665      15.21654474      19.44906711      -0.04116839      -0.06923014       0.18583437
H       12.79266062      12.88968648      19.03042488      -0.03417227      -0.11322709      -0.08172983
H       14.10035842      14.05891344      18.80567160       0.04073255      -0.04836838      -0.03675278
H       14.02626417      13.08962161      20.27723157       0.03134288      -0.05352947       0.04458477
H       15.53185740      15.70873142      24.31813460       0.11624912       0.08532377      -0.01335259
H       16.61417968      16.85865329      23.52458450       0.00816289      -0.13699818       0.08953989
H       15.49704852      16.70939525      26.48621551      -0.04724813      -0.15233675       0.08236602
H       16.78496606      17.76455265      25.91406036       0.16462696      -0.03632422       0.03838115
H       15.35829412      18.45204579      26.68002416      -0.04210495       0.11767229       0.13446052
H       13.26887018      16.64939546      25.23570311      -0.05628038      -0.03806600       0.01235307
H       13.14455159      18.38707001      25.52323890      -0.04609818       0.04072360       0.06321439
H       13.00665852      17.75060402      23.88151010      -0.08730741      -0.01789297      -0.02113152
H       14.84643204      19.93312976      24.62538333       0.05105797      -0.20619418      -0.12875579
H       14.93503527      19.18268200      23.01351939       0.05657673       0.05095436       0.17636306
H       19.08630969      19.69537244      23.88389185      -0.06945426       0.25428345       0.07056226
H       18.56348847      22.53758176      23.44080800       0.19468967      -0.17750624      -0.07046942
H       19.47748751      21.91272304      20.87844589       0.31032121      -0.16932046      -0.00762866
H       22.18458027      21.61081174      19.77269494      -0.13917114       0.12065539      -0.15104596
H       22.66485347      22.81548028      18.02713684      -0.27135489       0.02831315      -0.15941148
H       20.33299478      24.08585266      16.52343333       0.13312849      -0.02494451       0.04308293
H       22.09316574      25.35447579      15.32644294       0.02276916       0.11678508      -0.09133101
H       23.35135438      24.49100815      16.20695979       0.12634282       0.01883710       0.02389179
H       22.35174099      23.63699717      15.04400927       0.02365107      -0.08407494      -0.12196733
H       20.68920618      25.03827528      18.76427981      -0.00745872       0.06353548       0.02685825
H       22.40785074      25.26246795      18.42292245       0.06865236       0.02408102       0.00387166
H       21.19823048      26.17929980      17.52022779       0.00957896       0.07740775       0.03259559
H       24.79885171      19.16435638      16.50479874      -0.10631131      -0.08723317      -0.00292961
H       23.55243336      18.18047219      17.27414083       0.03448980       0.11349707      -0.05575112
H       23.21934963      16.88648251      15.19790264       0.13645610       0.01659927      -0.00780338
H       24.94964911      16.85496192      15.63503445      -0.23045092       0.10736618      -0.11123873
H       29.67066879      20.23366986      10.60463763       0.07419366       0.03111948       0.02635384
H       28.31999289      21.37339863      10.54514321       0.01206683      -0.00335787       0.00022219
H       28.27102380      19.97547857      11.64332375       0.06356199       0.06916349       0.00499327
H       28.11442344      19.14750691       7.57862711       0.03312895       0.05529873      -0.06896842
H       28.21533782      20.86591319       8.04267104       0.01252392      -0.05911823      -0.02375284
H       29.57713233      19.77147363       8.33381058      -0.05895465       0.02849134      -0.06657301
H       25.08879468      17.85077417       9.09544568      -0.02532540       0.01742321      -0.05456048
H       26.04397571      18.53102725       7.78069584      -0.00175207       0.00227662      -0.08848045
H       26.76083926      17.32734772       8.86970743       0.00110224      -0.01172815      -0.00993074
H       25.98844669      21.33966765      10.22681711      -0.02435611       0.02385913      -0.01418431
H       25.93319685      20.94468778       8.50034886      -0.01137090       0.02423113      -0.04656730
H       24.67847801      20.34427228       9.58730346      -0.05325366       0.04199412      -0.00295204
H       23.79320754      19.29175352      12.50200492      -0.13561747      -0.11092333       0.16355376
H       22.53762960      18.34247916      13.34047681       0.09825000       0.11155004      -0.07408204
H       22.38951419      20.70553198      14.01598125       0.02140418       0.07955632       0.05067547
H       24.08876777      20.70116774      14.52640258      -0.04214118       0.01381175      -0.04076990
H       20.41314552      20.53250013      15.38881493       0.08915441       0.07327256       0.02405306
H       19.63551797      21.76201399      16.37836584       0.05010894      -0.00527578      -0.11415472
H       20.59113951      22.24649860      14.96688173      -0.05562402      -0.02583171      -0.01256065
H       21.17486945      19.38376887      20.71466709      -0.06964186       0.00889196       0.13029319
H       19.91802649      19.58674901      21.94633483       0.03683236      -0.04135303      -0.00734300
H       18.94883451      18.29253641      20.24732900       0.01736783       0.23679848      -0.02421482
H       18.05431702      21.13057189      19.56089412       0.02111992      -0.18532944       0.19614897
H       17.44932631      20.22720678      20.96308677       0.00255554       0.02441267      -0.06520160
H       16.80301321      19.01896724      17.01481857       0.04715182       0.08359590       0.03386021
H       17.64385649      20.52986156      17.42211700      -0.01829972      -0.14045276      -0.04376475
H       19.29289831      18.77158234      16.76707961      -0.08791437      -0.05530210       0.03094867
H       18.62875362      17.69157989      18.02546972       0.00883349       0.13884952      -0.10539979
H       22.09230372      22.42096369      24.41760335      -0.17915218       0.02953341       0.03817860
H       20.58376000      23.25861763      24.86305269       0.06274525      -0.04238592      -0.02216813
H       21.05142402      21.52779795      26.56204508       0.04618344      -0.05181393       0.00423262
H       21.19457875      20.29369692      25.30243892       0.05372793       0.03757712       0.03286065
H       18.67166374      21.89570609      25.97162256      -0.01368510      -0.08800823      -0.03428376
H       18.93258371      20.17595109      26.30034715      -0.04954893       0.03138960       0.02168173
H       13.47463318      16.64707526      18.23649002      -0.03379841      -0.00358194      -0.04199281
H       15.04646896      18.37464852      17.59436585      -0.00602846       0.02027775      -0.00103190
H       16.77055169      18.39391652      21.53201582      -0.01615243       0.01099336      -0.09063873
