151
Properties=species:S:1:pos:R:3:MACE_forces:R:3 energy:=T -221.332237183735=T gnorm:=T 0.008376974988=T xtb:=T 6.7.1=T (edcfbbe)=T MACE_energy=-90873.36416562268 pbc="F F F"
C       10.15721807      16.38655190      23.96482981       0.03477532      -0.20628395      -0.34526274
N       11.40887637      13.87308344      24.30275338      -0.25960202       0.14849038       0.05723381
O       10.13237237      15.00882796      21.92474156       0.02466397      -0.01289900       0.21201242
C       10.95781344      15.72712704      22.84202220       0.00190477       0.21840538      -0.00752261
N       13.49366281      15.65722659      20.74483712      -0.11321451       0.08918201       0.26285045
O       16.74337137      19.35712940      23.90319167      -0.00735851      -0.65409681      -0.01778855
C        9.24768683      15.80597423      21.16636696       0.13285350      -0.06644934       0.10474011
N       19.08878306      21.70705954      23.15201052      -0.31052949       0.26158822       0.02015842
O       26.53969240      16.95175335      14.30475210      -0.59299118       0.51113659      -0.43347725
C       11.92429543      14.70094887      23.40484090       0.25071212       0.10798868      -0.28136223
N       20.46485812      21.95424929      23.22293213      -0.53780129       0.09499106       0.91849859
O       23.51443795      20.93123988      17.83165322      -0.32964798      -0.22019052      -0.38132206
C       12.16915918      12.93242198      24.83345110       0.04651556      -0.19177920       0.07984225
N       21.23853247      21.89869333      19.70466341       0.51781302      -0.24331639       0.42519349
O       19.50467786      22.78339116      18.55541288       0.07469058       0.07635571      -0.07589867
C       13.49978509      12.75208180      24.49153797       0.02598813       0.06056725      -0.04873362
N       21.75599022      21.69733712      16.66225039      -0.28342859       0.34096409      -0.03054508
O       19.79670775      19.41068646      18.56290427       0.02971909       0.11550778       0.09316078
C       14.04945435      13.61539446      23.56193734      -0.16451977      -0.02369635       0.02176711
N       24.46954729      17.88151357      14.29016772      -0.41579289       0.10273655       0.14238608
O       22.42994916      22.08960298      22.13648744      -0.27232302      -0.12973899      -0.02710550
C       13.26489958      14.62185833      22.99779844      -0.11467516      -0.27805153       0.20844030
N       27.64374496      19.78966920       9.91547039       0.04991534      -0.00565068       0.07898568
O       16.43571426      21.56413135      24.17770507       0.33442064      -0.36145183      -0.07459172
C       13.89152312      15.55660598      22.05792869       0.22692797       0.23418440       0.19315163
N       16.96664315      19.59170468      18.97665590      -0.03557612       0.23938641      -0.09589797
C       12.67799616      14.69872455      20.04076137      -0.07524537      -0.50039978      -0.20778602
C       13.50592157      13.49520892      19.59502424      -0.06568115       0.16830982       0.03554056
C       14.92797318      16.43063119      22.31503001      -0.17376789      -0.29351532       0.08593644
C       15.63523632      16.60926048      23.62135662      -0.14409333       0.10135153       0.06571232
C       15.07048552      17.71487907      24.54276888       0.22600296       0.17569982       0.03604649
C       15.75755873      17.62097812      25.90864467      -0.03365774       0.06257386      -0.27545702
C       13.56264739      17.55574004      24.72223454       0.24966009       0.10600002      -0.10397166
C       15.33041316      19.09724070      23.93335131      -0.67550057       0.00211213       0.11478020
C       17.15469190      20.59645206      24.05739854       0.03326080       0.96435763      -0.01849467
C       18.67254733      20.68037888      24.10535930      -0.08051854      -0.03776860       0.27305514
C       21.22837500      21.86629497      22.12326022       0.61888483       0.11976326      -0.94391599
C       20.48431923      21.45919676      20.85159392      -0.17281744       0.01421911       0.01064888
C       20.69944336      22.52729350      18.65760247      -0.14423271       0.15505250      -0.20510255
C       21.71449075      22.85953103      17.55536224       0.00701983       0.28187361       0.13289214
C       21.40468737      24.17734852      16.83240048       0.07926593      -0.12222659       0.16844933
C       22.46065116      24.46081797      15.76732996      -0.18759231      -0.12993363       0.06448830
C       21.38041956      25.31491753      17.85307615      -0.08185773      -0.21912549      -0.00577715
C       22.70256826      20.78542453      16.91474125       0.90636801      -0.35548601       0.47851625
C       22.86924963      19.56723074      15.98375649       0.50831174       0.01817065       0.11570366
C       23.92283522      18.61767276      16.55785073      -0.18560952       0.04974729      -0.11357819
C       24.14518610      17.42885429      15.62338346       0.12706909      -0.19019890       0.43030650
C       25.66906166      17.61732275      13.74028208       0.90335557      -0.92625847       0.70660275
C       25.86511069      18.15013860      12.41642628       0.70043702       0.31151208      -1.08776178
C       26.16640159      18.57266484      11.32872123      -0.44773843      -0.28239488       0.94610578
C       26.33452885      19.13111244       9.98995105      -0.01734292      -0.18600070      -0.34080073
C       27.92330798      20.69981529      11.00613604       0.01234895       0.03111907       0.14408084
C       27.93420063      20.41907670       8.64389210       0.00999583      -0.03842269       0.01344381
C       26.29292045      17.94545176       9.00882808      -0.01998284       0.12397765      -0.01605297
C       25.12852032      20.06299921       9.73573265       0.19027507      -0.00130597      -0.02057999
C       23.46975095      18.73754665      13.69838394      -0.13175243       0.28416062      -0.18035329
C       23.26229981      19.98469615      14.56390017      -0.23299791      -0.25708858       0.05579204
C       20.63578713      21.56674626      15.75281328      -0.33057568      -0.08731502      -0.20246971
C       20.29035110      19.93388748      20.86342794      -0.16601986       0.09669075      -0.37597730
C       19.24821119      19.40757590      19.87701938      -0.10837075      -0.01981243       0.24182486
C       17.92331992      20.19145656      19.88335984       0.29967050       0.03276972       0.12310276
C       17.54523714      19.59338885      17.64448533       0.30159856      -0.18054586      -0.10629009
C       18.87951945      18.83866031      17.64867089      -0.19050887      -0.06580750      -0.14382702
C       21.00256230      22.30944063      24.52594357       0.21310487      -0.21229906       0.09308402
C       20.63603336      21.22796999      25.54129873      -0.09968495       0.22178186      -0.06090823
C       19.12315285      21.01187663      25.53816042       0.20082548      -0.18949326      -0.18925185
C       15.19784565      17.10713311      21.08540387      -0.26281393      -0.28521367      -0.50207591
C       14.29454371      16.58365787      20.13236654       0.36096978       0.53623731       0.01229501
C       14.30001474      17.04635648      18.82310577      -0.03528809      -0.08517405      -0.08798566
C       15.20026302      18.02440651      18.47935558       0.02266279      -0.05554920      -0.15828655
C       16.14214750      18.54687111      19.39440965      -0.14228850      -0.03589176       0.16219807
C       16.13511192      18.07092112      20.70065777       0.13786855       0.12783499      -0.08362608
F       21.66310217      18.85266797      15.91598854      -0.17543302      -0.01233898      -0.03707694
H       10.83831668      16.84075092      24.67719647       0.00872492       0.04576350       0.05939309
H        9.50319329      17.15696440      23.56667168      -0.01918246       0.07233839       0.01393483
H        9.56674953      15.62761739      24.46896562      -0.02092434       0.04927002       0.03280268
H       11.51693332      16.49581965      22.28153813      -0.13494701      -0.23808277       0.16656318
H        8.42137293      16.18320449      21.77421056       0.03516688       0.01367686      -0.06483393
H        9.77667106      16.64779508      20.70624397      -0.05881773      -0.02304816      -0.01442890
H        8.85326506      15.15181866      20.39119336      -0.04769602       0.14588713      -0.01266348
H       11.68169784      12.30051145      25.56357544       0.08478981      -0.09045299       0.03124947
H       14.08354922      11.96313416      24.93735995       0.02610128      -0.04139707       0.03608760
H       15.07991668      13.51249296      23.25402131       0.01515152       0.03145096      -0.00225040
H       11.86552137      14.36954158      20.68967489       0.12310323       0.17605141      -0.21579623
H       12.24563602      15.19917586      19.17194071      -0.06051179      -0.04395026       0.17844518
H       12.88572808      12.80236957      19.03481233      -0.02171064      -0.09500222      -0.05002635
H       14.33609651      13.81393621      18.96769582       0.01544094      -0.03164994      -0.01414267
H       13.90677527      12.97974677      20.46566349       0.01206997      -0.04008183      -0.01903335
H       15.58946436      15.67106713      24.17603886       0.12773013       0.06990175       0.02096051
H       16.68374908      16.83931634      23.42558553       0.02047898      -0.12865830       0.08378408
H       15.52301977      16.67112781      26.38035026      -0.01259438      -0.07560282       0.03995921
H       16.83582764      17.69796754      25.79952059       0.05871724      -0.01725548       0.06502477
H       15.41515691      18.42197357      26.55984646       0.00457288       0.05532804       0.08522656
H       13.33685778      16.56399887      25.10523009      -0.06077860      -0.02458241       0.01077656
H       13.18271275      18.29373455      25.42441177      -0.05922015       0.03535908       0.05458028
H       13.05216852      17.68530454      23.77247517      -0.11858546      -0.01707036      -0.00823814
H       14.84900852      19.88539847      24.52077898       0.08631077      -0.20659457      -0.11376254
H       14.95399146      19.14231505      22.90734839       0.10599257       0.04105707       0.19516394
H       19.09364468      19.72005281      23.79290253      -0.02419477       0.21792022       0.07005797
H       18.56954343      22.56405730      23.35470596       0.16725378      -0.24100560      -0.09794688
H       19.51994942      21.96840324      20.83138069       0.26588879      -0.16252392      -0.02048656
H       22.22641405      21.67604648      19.70385204      -0.18956630       0.15787428      -0.10879881
H       22.70821507      22.93458201      18.00834209      -0.28684920       0.01935139      -0.15566560
H       20.41437782      24.11374585      16.37594286       0.10084304      -0.00997014       0.04789819
H       22.21247945      25.37412870      15.23369332       0.03597981       0.05090404      -0.05602931
H       23.43477522      24.58823969      16.23411150       0.09534340       0.02205655       0.00909793
H       22.53574587      23.65003835      15.04880201       0.03970459      -0.03030390      -0.09026060
H       20.58960787      25.15775017      18.57990350      -0.04579685       0.05134760       0.05724098
H       22.33076754      25.37400528      18.38509628       0.00333799       0.04133609      -0.04138287
H       21.20016137      26.25971215      17.34931996       0.01871405       0.10486002       0.02212638
H       24.84743789      19.17652413      16.69514545      -0.07804063      -0.06711907       0.01651585
H       23.59115637      18.26566429      17.53480214       0.04159875       0.10563303      -0.06566180
H       23.23547004      16.82085267      15.57874144       0.13926865       0.01578133      -0.02064058
H       24.97257263      16.81462703      15.98352996      -0.22144607       0.09040353      -0.10151927
H       28.97883857      20.96508602      10.96616492      -0.04409100       0.04944066       0.02855064
H       27.33473397      21.62945402      10.96024094       0.03762581      -0.04707312       0.02818100
H       27.72894354      20.20605054      11.95665245       0.10237216       0.16545366      -0.07737848
H       27.74772631      19.72685607       7.82830495       0.01376606       0.07059669      -0.05640637
H       27.35693154      21.34093645       8.47661041       0.01483882      -0.05953466      -0.04443185
H       28.99262484      20.67862774       8.63314493      -0.06280515       0.02036379      -0.06891651
H       25.49709042      17.26217802       9.29165212      -0.04477961       0.01523270      -0.04521626
H       26.10711234      18.28864246       7.99491605       0.00899207      -0.00136878      -0.05693414
H       27.23946614      17.41454807       9.04248210       0.00988798      -0.02573041       0.01747800
H       25.12408229      20.88499506      10.44653672      -0.02578992       0.04596956       0.00765664
H       25.16959165      20.46383379       8.72714462      -0.01010768       0.03238410      -0.05910861
H       24.20639507      19.50037095       9.84903524      -0.05848985      -0.01726750      -0.01523433
H       23.78731494      19.02329679      12.69604789      -0.22788809      -0.06267567       0.22096942
H       22.52832713      18.18179240      13.63569198       0.12309967       0.10637017      -0.08543732
H       22.48984693      20.60752042      14.11721191       0.03421507       0.06842400       0.04482778
H       24.18865433      20.55729473      14.62546246      -0.04755234       0.00296929      -0.02431776
H       20.50451382      20.54064538      15.42592800       0.11589426       0.18447840       0.03899946
H       19.73079021      21.87088376      16.28403121       0.09858333      -0.03016238      -0.12479517
H       20.77125113      22.21682227      14.88564637      -0.10275545      -0.10312890       0.03522539
H       21.24939337      19.46447618      20.63124343      -0.09493815       0.00025902       0.12742905
H       19.98558686      19.62815041      21.86100242       0.03701282      -0.04866382       0.00570408
H       19.02930938      18.35616188      20.14230968       0.03241646       0.26652166      -0.02205886
H       18.11454432      21.19989373      19.50251643       0.05185174      -0.17858761       0.22426670
H       17.51880165      20.26850314      20.89106673       0.03301109      -0.00379265      -0.10250029
H       16.87841141      19.14201360      16.91588717       0.04537816       0.08358548       0.04517032
H       17.72428998      20.63695763      17.36746797      -0.01903295      -0.14175367      -0.05810346
H       19.36093797      18.87380980      16.67347435      -0.04375691      -0.05214811       0.02495974
H       18.69966618      17.78723070      17.92531219       0.00754116       0.17125008      -0.10700589
H       22.08192745      22.41018685      24.41364951      -0.22686439       0.03601400       0.03410398
H       20.57846727      23.27235716      24.82999158       0.05732366      -0.04404009      -0.01412961
H       20.97152926      21.53181322      26.53142315       0.03916700      -0.04572017       0.00696170
H       21.13999084      20.29744699      25.27502094       0.03948593       0.06140792       0.04799060
H       18.60871789      21.91883440      25.86301880      -0.02256176      -0.07877161      -0.01001673
H       18.84867884      20.19948654      26.21013169      -0.05717751       0.02582923       0.01093436
H       13.61115279      16.66458408      18.08369025      -0.01625887       0.01138862      -0.01818710
H       15.16576531      18.41209614      17.47457422      -0.01965539       0.02942218       0.00257063
H       16.84264107      18.42661777      21.43251956       0.00959699       0.04022865      -0.02723371
