151
Properties=species:S:1:pos:R:3:MACE_forces:R:3 energy:=T -221.332211227734=T gnorm:=T 0.004673078013=T xtb:=T 6.7.1=T (edcfbbe)=T MACE_energy=-90873.34354652216 pbc="F F F"
C       10.33968063      16.26726598      24.19092583       0.01137193      -0.11103172      -0.38286090
N       11.52949988      13.70969281      24.17120363      -0.27779029       0.10557013       0.08944932
O       10.20738022      15.20386952      21.97995311       0.01115240      -0.03689406       0.16554629
C       11.08714533      15.74465299      22.96436895      -0.00948628       0.23399429       0.07190248
N       13.42674578      15.77301338      20.69478112      -0.18170784       0.08675491       0.20885998
O       16.85286633      19.23779454      24.01865294       0.15596226      -0.77473673      -0.06054840
C        9.43945050      16.16013699      21.28225405       0.12724756      -0.08405866       0.11069853
N       18.94696167      21.80871113      23.15410357      -0.37054139       0.15569815      -0.09923206
O       25.97013769      16.64140449      14.20409162      -0.45596803       0.62410391      -0.39635928
C       12.02829642      14.61643153      23.34439935       0.21689069       0.16444847      -0.32243025
N       20.29016754      22.19399990      23.22299682      -0.48859299       0.09641266       0.91412421
O       23.29406803      20.70468393      17.75611652      -0.33753908      -0.09227965      -0.42776821
C       12.27979694      12.68898300      24.54560590       0.13054917      -0.20663223       0.06367393
N       21.19219887      22.03391336      19.72921500       0.46110443      -0.22334485       0.58381720
O       19.51958624      22.90268489      18.48457367       0.09359738       0.07802173      -0.07183841
C       13.58417333      12.50863508      24.11274685      -0.01702680       0.03866027       0.00149086
N       21.65177462      21.71684277      16.60456779      -0.28637688       0.45479777       0.03145832
O       19.60089716      19.66661384      18.58594365       0.01268139       0.08349069       0.13293474
C       14.11453351      13.44966715      23.24966361      -0.14270424       0.02411451      -0.01906976
N       23.99013382      17.74567364      14.11473945      -0.42911529       0.08589016       0.07259085
O       22.26896733      22.40166670      22.17103838      -0.40082971      -0.20924771      -0.01421140
C       13.33789520      14.53468598      22.84457956      -0.10066354      -0.37590493       0.22795380
N       27.91451462      19.15148736      10.14030946       0.04474339      -0.03412478       0.03651269
O       16.31907567      21.40972707      24.15694663       0.45814982      -0.31249944      -0.07917838
C       13.92313358      15.54539748      21.95824742       0.28049832       0.21602871       0.19060307
N       16.77853198      19.86324562      19.05542591      -0.03289758       0.24442447       0.01325230
C       12.56457944      14.87861949      19.96277598      -0.08029318      -0.47480624      -0.22346233
C       13.37237987      13.78758212      19.26117043      -0.10520694       0.19698593       0.04211831
C       14.97595132      16.39650760      22.22065776      -0.11098535      -0.31642619       0.08488321
C       15.81943711      16.43669410      23.45610494      -0.17099729       0.08005995       0.08633162
C       15.35039299      17.40137545      24.56784291       0.23393100       0.18898730       0.00660955
C       16.22085779      17.17952517      25.80780222      -0.09240429       0.08762981      -0.21354025
C       13.88619521      17.14954585      24.92294317       0.21166789       0.14009052      -0.10579606
C       15.47029293      18.85789885      24.10424087      -0.64083204      -0.00842275       0.13457802
C       17.13864207      20.51937903      24.08996759      -0.14773250       1.03155115      -0.04839973
C       18.63744317      20.76369968      24.12737413      -0.06037365      -0.02926881       0.35199945
C       21.08087444      22.10906009      22.14225552       0.63011227       0.17085280      -0.88411004
C       20.38250836      21.65371694      20.86059502      -0.12268413       0.06095058      -0.09161836
C       20.70187020      22.61067628      18.63071983      -0.17498734       0.18413806      -0.20412627
C       21.74794803      22.84563309      17.53486519       0.04476463       0.21652955       0.12656404
C       21.58609293      24.21597371      16.86368154       0.07635710      -0.11139730       0.14755815
C       22.64811925      24.41868874      15.78594199      -0.23239330      -0.10797742       0.11063478
C       21.71472671      25.30136426      17.93251516      -0.19892629      -0.16109357      -0.05976288
C       22.47858453      20.68887928      16.83160046       0.80201044      -0.47000443       0.45846234
C       22.52063194      19.50122147      15.84710716       0.56603493       0.05392710       0.19031577
C       23.43580250      18.40534058      16.39554090      -0.19487207       0.00719880      -0.10958534
C       23.54621499      17.25242624      15.39841652       0.10271844      -0.19399561       0.45381470
C       25.20753886      17.42781460      13.63883968       0.65122437      -1.09191293       0.69936775
C       25.56594286      18.04023207      12.38588982       0.68509967       0.37102230      -0.93416288
C       26.00772245      18.50063887      11.36432593      -0.51139525      -0.27417514       0.79182173
C       26.44889178      19.10281097      10.10869792      -0.07516187       0.02086063      -0.26140768
C       28.46012812      19.89813550      11.25782871       0.11297032       0.05538351       0.08607461
C       28.55523249      19.54509424       8.90428597      -0.05657995      -0.03199815       0.01140975
C       25.96633078      18.17205552       8.98376009       0.05933067       0.08018835       0.00427481
C       25.76390505      20.47967708       9.97075507       0.17774907      -0.11753738       0.01575456
C       23.11423899      18.73300509      13.53310784      -0.06062514       0.34445338      -0.08658538
C       22.99329679      19.94749071      14.46061876      -0.22856115      -0.29569857       0.00533662
C       20.51638391      21.74436103      15.70555949      -0.23528499      -0.01333986      -0.15592101
C       20.14476227      20.13531545      20.88947115      -0.20411534       0.06174498      -0.35224962
C       19.08149597      19.63451515      19.91118347      -0.11678850      -0.06843401       0.24836545
C       17.75728894      20.41878124      19.96740338       0.25798733      -0.04477867       0.06602057
C       17.33405843      19.89525505      17.71421794       0.34514382      -0.14811737      -0.10304787
C       18.65911930      19.12596584      17.67797413      -0.17988489      -0.01277040      -0.15283947
C       20.77813997      22.63456742      24.52020156       0.27861331      -0.13320031       0.03288166
C       20.53078017      21.53957065      25.55717052      -0.17687897       0.20470854      -0.04417000
C       19.05015836      21.15980989      25.55705722       0.16837983      -0.20462062      -0.17386869
C       15.14776764      17.19517365      21.04875652      -0.31618561      -0.19190823      -0.46147429
C       14.17502245      16.76389714      20.11885387       0.41482055       0.48901894       0.12536694
C       14.08156297      17.35506489      18.86531474      -0.01772192      -0.03995518      -0.11953068
C       14.96122397      18.36261942      18.55385919      -0.05395382      -0.09919425      -0.15624972
C       15.97118816      18.79134429      19.44402225      -0.06136948       0.00229294       0.17205086
C       16.05348703      18.19970607      20.69768589       0.13040335       0.12883040      -0.07532558
F       21.24303819      18.93413216      15.71528618      -0.21160592      -0.07776523      -0.05308751
H       11.05382905      16.57968005      24.94591454       0.00243814       0.05414997       0.08489379
H        9.71647763      17.11629893      23.92419879      -0.00040306       0.06215320       0.02531955
H        9.72095547      15.47186406      24.59413889       0.00564205       0.01209084       0.04294430
H       11.66469535      16.56340662      22.50390283      -0.12198909      -0.23944792       0.11539096
H        8.66680968      16.60191250      21.91692593       0.02676322       0.01303213      -0.06789034
H       10.07861097      16.95551584      20.88222151      -0.06446288      -0.01349993      -0.01599159
H        8.96858175      15.62028054      20.46339410      -0.03495669       0.13974776       0.00564046
H       11.80790644      11.99127513      25.22364646       0.07394083      -0.10011288       0.02646642
H       14.16194012      11.65894892      24.43860367       0.01935335      -0.03569801       0.02076213
H       15.12248324      13.34954667      22.87323591       0.01612589       0.02511367      -0.00037567
H       11.84872363      14.42855830      20.65325957       0.13441637       0.23112125      -0.22138256
H       12.01064314      15.46597860      19.22671226      -0.02940919      -0.07759167       0.19183508
H       12.70944673      13.14558046      18.68906109      -0.00843727      -0.09677843      -0.06497898
H       14.10285544      14.23205620      18.58864883       0.02685065      -0.04621473      -0.03487128
H       13.89940617      13.18080672      19.99434708       0.00777026      -0.02456164       0.00392063
H       15.85683370      15.43606977      23.89014695       0.11808010       0.07796214      -0.00124688
H       16.83414990      16.72168532      23.17085588       0.02001653      -0.14068681       0.07079696
H       16.07098086      16.17415013      26.19148249      -0.00980635      -0.07687962       0.05443591
H       17.27173666      17.30542773      25.56415522       0.06849830      -0.01703183       0.04525248
H       15.95845014      17.88902436      26.58907435       0.00363648       0.03981453       0.10148969
H       13.73645651      16.10370082      25.17839015      -0.04842633      -0.04417165       0.01318321
H       13.59117077      17.75947396      25.77334158      -0.03938809       0.03443025       0.06184270
H       13.24638572      17.39558472      24.08043670      -0.09517273      -0.02404435      -0.01669489
H       14.97629165      19.53451580      24.80915317       0.08058897      -0.18366987      -0.14348904
H       15.01194930      18.99118004      23.11993169       0.06368554       0.03250289       0.19245409
H       19.15621241      19.84465324      23.83722233      -0.08628626       0.22783760       0.04521813
H       18.34022689      22.61078972      23.33494633       0.20398749      -0.17449359      -0.05686064
H       19.43422062      22.18846011      20.78285857       0.29073493      -0.16852214       0.00656514
H       22.17095632      21.78393910      19.77776646      -0.17163233       0.11394734      -0.16084642
H       22.74589274      22.78979665      17.98010674      -0.25935878       0.06428111      -0.15642536
H       20.58647503      24.28610052      16.42839931       0.11019924      -0.03682502       0.04811926
H       22.51204020      25.38659000      15.31162427       0.04543005       0.04848956      -0.06823023
H       23.63996325      24.38923785      16.23161106       0.08547171       0.00312325      -0.00344876
H       22.59833285      23.64889365      15.02158689       0.04076658      -0.04304341      -0.08951286
H       20.93754473      25.19292047      18.68540719       0.00313862       0.06367162       0.02048061
H       22.68266596      25.24112816      18.42552312       0.08209063       0.02003464       0.01081987
H       21.61694955      26.28332764      17.47824694       0.01739594       0.08440789       0.02302838
H       24.41610892      18.84004832      16.58986565      -0.11411560      -0.07834888      -0.00989393
H       23.03155121      18.04560646      17.34185329       0.05230890       0.11037493      -0.06481550
H       22.56839332      16.77574053      15.27603521       0.15827165       0.00078764      -0.01162016
H       24.26972356      16.51451702      15.74817299      -0.20650787       0.13694547      -0.11227785
H       29.47761313      19.54472770      11.44658645      -0.11900082       0.14134271       0.00668698
H       28.49929584      20.98369645      11.06784841      -0.03687534      -0.13692040       0.07518061
H       27.86397610      19.71473697      12.15183475       0.15998502       0.05463984      -0.06982008
H       28.24718549      18.89147117       8.09395913       0.04162889       0.04631888      -0.06959656
H       28.35650959      20.59086809       8.62353487       0.02508604      -0.05789184      -0.01559289
H       29.63019559      19.43306917       9.04013672      -0.02820667       0.03010169      -0.08205859
H       24.93460288      17.88306119       9.16895184       0.00843793       0.04158839      -0.06083998
H       26.01661386      18.67474484       8.02188990       0.01464440      -0.01433196      -0.06005522
H       26.57968689      17.27550243       8.96137742      -0.00591659      -0.01627627      -0.01191691
H       26.01675177      21.12112767      10.81141026      -0.02182445       0.02282665      -0.01157082
H       26.08101725      20.96008146       9.04874400      -0.00435983       0.03390682      -0.04674996
H       24.68559512      20.35028256       9.94282411      -0.05115963       0.04739278      -0.00111228
H       23.50593376      19.03681391      12.56274198      -0.14408837      -0.08091428       0.15322001
H       22.12518174      18.28172086      13.40059937       0.13112351       0.10098941      -0.07556791
H       22.29129403      20.65853209      14.02998444       0.04130571       0.07073448       0.05230515
H       23.96366404      20.43073484      14.57615203      -0.03060145       0.01208887      -0.04110742
H       20.29607372      20.76228105      15.30951672       0.09871219       0.05407978       0.01422545
H       19.64715559      22.08621483      16.26838149       0.04945881      -0.01451792      -0.11387675
H       20.69884081      22.43643527      14.88353140      -0.06098358      -0.02196163      -0.01610035
H       21.08687320      19.63665406      20.65265911      -0.05693454      -0.00256525       0.11603034
H       19.83482039      19.84211221      21.88788722       0.04942036      -0.05274680      -0.00526907
H       18.86967096      18.57732728      20.15693640       0.01289895       0.24271466      -0.01760990
H       17.94398404      21.43972130      19.62055526       0.02458898      -0.19274255       0.18308017
H       17.36730861      20.45722110      20.98343536       0.01876784       0.02717934      -0.10844588
H       16.64933277      19.46342699      16.98993101       0.03737063       0.07868996       0.02954508
H       17.51985551      20.94264777      17.45794186      -0.02383367      -0.13215586      -0.05689848
H       19.11934098      19.17656036      16.69407799      -0.08168905      -0.06134289       0.04302495
H       18.47165090      18.07080700      17.93617379       0.00219892       0.14284833      -0.11104717
H       21.83947178      22.85736538      24.40920678      -0.22570079       0.00534293       0.03831416
H       20.24117939      23.54797333      24.79964223       0.08459382      -0.06355001      -0.01706801
H       20.82687874      21.89746743      26.54206459       0.05400610      -0.04835224      -0.00563625
H       21.13547378      20.66523322      25.30889229       0.03424563       0.05906836       0.03952236
H       18.44064868      22.00946843      25.87535905       0.00800639      -0.09637334      -0.02378440
H       18.86677863      20.32689557      26.23579485      -0.05017029       0.04676064       0.01921563
H       13.33265463      17.05003133      18.15048048      -0.03153382       0.00655551      -0.03620326
H       14.85858804      18.85241906      17.59918679      -0.00213145       0.03504494       0.00080010
H       16.80754464      18.49472085      21.40978530       0.02805368       0.02776801      -0.04687485
