151
Properties=species:S:1:pos:R:3:MACE_forces:R:3 energy:=T -221.329469420630=T gnorm:=T 0.004539183247=T xtb:=T 6.7.1=T (edcfbbe)=T MACE_energy=-90873.13681041333 pbc="F F F"
C       11.59390486      13.54997162      20.36639193       0.25808697      -0.15188243      -0.24968946
N       13.35442333      11.96350405      21.93998340      -0.29995974      -0.07135145      -0.10231885
O       13.20621867      12.24624121      19.03350759      -0.09950346       0.01947513       0.13695965
C       13.04972991      13.31169277      19.96998042      -0.10971607       0.16550037      -0.04631818
N       16.04566739      14.43197638      19.32627939      -0.30519630      -0.07779772      -0.01440892
O       15.88703421      19.33478946      22.38265025       0.10874204      -0.55495488       0.40861179
C       12.67300267      12.49214944      17.75038736       0.06084604       0.00360060       0.19764080
N       17.90634413      22.24204412      21.86047856      -0.38923829       0.20219085      -0.10615677
O       18.51781087      19.95309922      13.54974350       0.69245544      -0.31019365       0.18671256
C       13.87808721      12.90954037      21.17471566       0.30439348       0.23202183      -0.18796002
N       19.05222355      22.77917297      22.45867492      -0.82692581      -0.00205335       0.71185830
O       22.91045780      21.27073976      17.12441404       0.01690991       0.25968838      -0.35807405
C       14.02029245      11.54271724      23.00044164       0.10211524      -0.07789990       0.15998695
N       21.58568930      22.83184976      19.81268586      -0.13793728      -0.51175870       0.47935980
O       21.13186791      24.55311032      18.42331118       0.25882929      -0.13363063       0.05266416
C       15.25840240      12.04731548      23.36672054      -0.02168368       0.03498840      -0.04096068
N       23.25161104      23.47208878      16.85868529       0.26043513       0.25704102       0.30371161
O       19.09572429      21.98218038      17.71079730      -0.07259374      -0.05096580       0.13170105
C       15.81225681      13.03729388      22.57614351      -0.09660344      -0.13406628      -0.07374757
N       20.60774180      20.24856134      14.38886990       0.27719277       0.18699204      -0.00152641
O       21.23423707      23.29146976      22.37516403      -0.44449773      -0.24703384      -0.11288492
C       15.12564546      13.48912521      21.44922207      -0.11141451      -0.30005556       0.24082337
N       21.56935351      15.29104847      12.67101026       0.05506017       0.01540027       0.02958463
O       15.38632810      21.24099775      21.31015782       0.39795143      -0.27132050       0.33569111
C       15.70272701      14.57620318      20.65443550       0.01504901       0.40463460       0.35486698
N       17.99347713      19.52076492      18.43310255      -0.12175648      -0.30081285      -0.18093740
C       16.17890440      13.18285284      18.61677749       0.25515100      -0.40589436      -0.06356810
C       17.60010794      12.63385756      18.73336406      -0.19848136       0.08864332      -0.07852159
C       15.97308638      15.85757203      21.08208579      -0.01687236      -0.39239332       0.10828840
C       15.76028228      16.43629801      22.44434834      -0.16037630      -0.01435455      -0.10096821
C       14.51460315      17.33893856      22.61041747       0.12384037       0.25357794       0.07412198
C       14.29716254      17.58653473      24.10595838       0.07070967       0.00024991      -0.21810874
C       13.28333014      16.65778118      22.01419545       0.19365012       0.21119858      -0.00895459
C       14.69607261      18.69216760      21.90669656      -0.49909427      -0.18445913      -0.32766062
C       16.12421681      20.57803742      22.00403405      -0.09736684       0.91920425      -0.63593962
C       17.42712265      21.07973996      22.60542214      -0.18931630      -0.02611490       0.15786036
C       20.22038412      22.90007879      21.80511761       1.05929879       0.33332868      -0.43815491
C       20.24396966      22.60231308      20.30306653      -0.00606011       0.04949433      -0.07769601
C       21.90755745      23.71354082      18.86138312      -0.01550498       0.26635173      -0.26894936
C       23.33833927      23.55222080      18.32106138      -0.07116903      -0.05193981       0.27802894
C       24.28895433      24.62685438      18.86309708       0.03198091      -0.10997975      -0.04175150
C       25.69903665      24.41185201      18.31396404      -0.25810485       0.12448115      -0.05811755
C       24.31429746      24.53954397      20.38985691      -0.21405227       0.19819655      -0.17691703
C       22.99555434      22.24839679      16.37606078       0.14337070      -0.77038563       0.02014315
C       22.85745124      22.02201445      14.85738612      -0.03567783      -0.13397746      -0.44814348
C       21.53363963      22.52448587      14.27448085       0.06445893      -0.14090732       0.13545828
C       20.36725044      21.63976221      14.70415438      -0.32220441       0.39002191       0.04253280
C       19.62586134      19.50253823      13.85428325      -1.11837256       0.65180899      -0.22626756
C       19.93178077      18.10918791      13.64834710      -0.19342593      -1.10522910      -0.36766741
C       20.03511662      16.93478331      13.40232201       0.08287918       0.93206668       0.28631882
C       20.20319626      15.50224804      13.16852767      -0.18936358      -0.22620671       0.08086791
C       21.87407775      16.02501965      11.45962932       0.04498154       0.04348352      -0.11760216
C       21.97176513      13.90620124      12.53343155      -0.04331066       0.04880354       0.02390880
C       20.02164709      14.82122606      14.53648195      -0.02129416      -0.01044156      -0.09050269
C       19.09004085      15.03881039      12.20702822       0.14899779       0.03780217       0.01422520
C       21.83864359      19.69730336      14.90679061       0.31100715      -0.34229078       0.24455653
C       23.03884468      20.54463786      14.49271325      -0.06222743       0.14239805       0.34146664
C       23.11863923      24.71725893      16.12969347      -0.28028951       0.32145268      -0.22892362
C       19.83644096      21.17715027      19.92012787      -0.22917744       0.29214933      -0.48176026
C       19.86808260      21.00283100      18.39324892       0.40624429      -0.37326542       0.01800151
C       19.37469323      19.60372856      18.01683786       0.26217051       0.39362564      -0.04177869
C       17.18478400      20.45189464      17.66996828      -0.01847144       0.33711940      -0.18653445
C       17.70103640      21.86549842      17.94557682      -0.25545173      -0.06013399      -0.07280445
C       18.93021679      23.15960888      23.86045456       0.29260847      -0.08614939       0.13191960
C       18.48027704      21.95874344      24.68849519      -0.21118201       0.22997256      -0.12193036
C       17.19252896      21.38985238      24.09632998       0.34279568      -0.21842571      -0.02824801
C       16.52214495      16.53976084      19.96013031       0.13629559      -0.24643023      -0.38669069
C       16.55181039      15.62028312      18.88257817       0.07738745       0.68510908       0.12804895
C       17.03061966      15.99292546      17.63009213       0.02498204      -0.15162573      -0.20218718
C       17.47675595      17.28577988      17.46070008       0.07428188       0.09706440      -0.10530292
C       17.48359544      18.19152565      18.53110669       0.01471219       0.27366234       0.31689142
C       17.02837206      17.82164556      19.77618032      -0.02076575      -0.11627227      -0.21046619
F       23.90853038      22.70764581      14.21403658       0.00196507       0.03861698       0.06487242
H       11.17510159      12.62919725      20.76066462      -0.02610146       0.01747540       0.02851726
H       11.55178704      14.31964795      21.13079320      -0.06547858       0.05702912       0.03796747
H       11.01426601      13.87938112      19.50841284      -0.04088626       0.04934266      -0.00188826
H       13.46323049      14.23299590      19.52754171      -0.06820520      -0.24979283       0.13479635
H       11.58096092      12.44618349      17.74992032       0.04977160       0.03351616      -0.04783678
H       12.99606183      13.46872163      17.37340258      -0.02799450      -0.03583569      -0.03941655
H       13.06633265      11.70380391      17.11202339      -0.08516265       0.09150909      -0.07381647
H       13.53142784      10.76979870      23.57727905       0.06952849      -0.03802969       0.10122590
H       15.76911721      11.67587597      24.24020484       0.02093418      -0.01446815       0.04051699
H       16.77903871      13.45702838      22.81220719       0.01389276       0.04244076      -0.00234941
H       15.46493022      12.46422491      19.02254143       0.10040528       0.24612503      -0.19048794
H       15.93148006      13.35923052      17.56678980      -0.09013452      -0.07077035       0.16391899
H       17.70029351      11.73841201      18.12751559       0.07054946      -0.09542706      -0.02550202
H       18.31977610      13.37427088      18.39176684       0.06329951      -0.02564855      -0.01252408
H       17.82353191      12.38284826      19.76724854       0.02305653      -0.00525006       0.03761381
H       15.66185044      15.61787158      23.15882527       0.05642394       0.11810579       0.03347314
H       16.63951019      17.02380923      22.71335085      -0.00693537      -0.12291209       0.13727979
H       15.18306082      18.03666705      24.54568210       0.02814263       0.01882360       0.09238460
H       13.45397213      18.25463657      24.26279952      -0.06905928       0.05457746       0.05192634
H       14.09185718      16.64999734      24.61722953      -0.00598853      -0.06383023       0.06403748
H       12.39375482      17.25911843      22.18201161      -0.11158736       0.01810751       0.03675810
H       13.40698127      16.51436905      20.94378619      -0.03974193      -0.04978355      -0.04629268
H       13.14103745      15.68479920      22.47734403      -0.03541671      -0.06435421       0.01846645
H       13.84277253      19.34865332      22.10576247       0.14021059      -0.15380733      -0.03477102
H       14.77853464      18.56249876      20.82288371      -0.00448860       0.06198424       0.21994237
H       18.18255318      20.29170187      22.51743534      -0.13037197       0.11372441       0.00567664
H       17.16655455      22.94356481      21.80937770       0.23878787      -0.14760987      -0.01823730
H       19.59385377      23.32573235      19.79754050       0.14423823      -0.23840601       0.11024500
H       22.28611982      22.19157754      20.15485220      -0.05554084       0.23481914      -0.22982939
H       23.71945834      22.57641023      18.64213997      -0.07143085       0.31353350      -0.04496786
H       23.91585271      25.61705376      18.58669503       0.03951665      -0.13975120       0.00702663
H       26.08018779      23.44794720      18.64420119       0.04213201      -0.05501141       0.01957620
H       25.71809221      24.42468124      17.22787190       0.05271704       0.00343790      -0.06167317
H       26.36306089      25.18875949      18.68183729       0.08607244       0.01993458       0.00334866
H       23.32325508      24.68324536      20.81448839       0.04901194      -0.01205230       0.09090769
H       24.68585554      23.56922596      20.71074909       0.04080836      -0.09114836       0.05139022
H       24.97212120      25.30584484      20.79015139       0.05598721       0.02151606       0.06052371
H       21.32132239      23.54231927      14.59423792       0.04398227      -0.01936171      -0.05471044
H       21.63307141      22.51320328      13.18654545       0.03300393       0.00477165       0.10955123
H       19.45785782      21.94114675      14.17858284       0.20939722      -0.05586723       0.23103736
H       20.19226953      21.75441859      15.77963860      -0.01495033      -0.03159799      -0.22620110
H       21.51878126      17.04983823      11.54992136       0.08247752      -0.05563613      -0.07752943
H       22.95637722      16.04108678      11.33260179      -0.04731813       0.03195037      -0.06583396
H       21.43113287      15.57526844      10.55767986       0.02355108       0.05482891       0.06408917
H       21.44479302      13.37897279      11.72404532       0.02707760      -0.00830398       0.05882131
H       23.03678660      13.89343145      12.30449896      -0.04405623      -0.08650480       0.00497045
H       21.81978339      13.37356367      13.46670718       0.02447196      -0.08345496      -0.02301208
H       19.15761579      15.24855054      15.04014785       0.00445346      -0.07295831      -0.00587468
H       19.85756175      13.75460823      14.41656988       0.01541177      -0.07463852       0.03024125
H       20.90036844      14.99137566      15.15171316       0.01751572      -0.00155614       0.02107878
H       19.14594846      15.57672861      11.26349822      -0.02121403      -0.03247155       0.00314964
H       19.18100972      13.97233129      12.01673991      -0.01632790      -0.04396748      -0.01241273
H       18.11831647      15.23446732      12.65279304      -0.03572229      -0.02292938      -0.02214799
H       21.78982891      19.66880052      16.00079141       0.01898006      -0.09389401      -0.28962486
H       21.95821380      18.68073203      14.52891592      -0.01543515       0.21766694       0.10305996
H       23.18119339      20.49404759      13.41201449      -0.04879363       0.06551363       0.08029366
H       23.93051335      20.15622742      14.98417968      -0.03987975       0.05315759      -0.06605175
H       22.13198493      25.14605893      16.32180072       0.18589400       0.02787113      -0.02864450
H       23.87333201      25.41698195      16.47632967      -0.03162531      -0.02509028      -0.08307866
H       23.26438652      24.56836308      15.06659797       0.04256359      -0.02553853       0.13045186
H       20.53450610      20.46498545      20.35897600       0.02117764      -0.05504216       0.06703819
H       18.83196361      20.96351703      20.27211000       0.28312692      -0.04718709       0.01740328
H       20.88807699      21.14902802      18.02320042      -0.27686100      -0.09700387       0.15070309
H       19.95597651      18.84530130      18.54213206      -0.00641514       0.04612750      -0.07374764
H       19.49433501      19.45401024      16.92890362       0.03586532      -0.01549874       0.18317144
H       17.22689677      20.24489000      16.58377728      -0.01342870       0.03875925       0.19544835
H       16.14733225      20.37754058      18.00288237       0.09855281       0.03074419      -0.06559953
H       17.46523587      22.14077680      18.98005785       0.00032069      -0.03561739      -0.10802119
H       17.23626677      22.58290016      17.26757123      -0.03173230      -0.09086494       0.14143559
H       19.90342531      23.52806532      24.18326467      -0.22815981      -0.01988211      -0.05877549
H       18.19429092      23.96752832      23.93296621       0.05832766      -0.03857141       0.01831486
H       18.31768521      22.26883686      25.71959815       0.05386096      -0.04185375       0.02122899
H       19.26110115      21.19754847      24.67292887       0.02269617       0.02848254       0.04773415
H       16.38355236      22.11863570      24.18740931      -0.00918169      -0.05262767      -0.02458233
H       16.89839592      20.47791519      24.61383400      -0.06321039       0.05394110      -0.00627764
H       17.05161703      15.29766564      16.80467391      -0.00975635      -0.04482944      -0.02384394
H       17.84012257      17.60816575      16.49417057       0.00071949      -0.02360148       0.00403550
H       17.09820242      18.52792485      20.58379084      -0.00751847       0.02166024       0.00420161
