151
Properties=species:S:1:pos:R:3:MACE_forces:R:3 energy:=T -221.329968966610=T gnorm:=T 0.009177918086=T xtb:=T 6.7.1=T (edcfbbe)=T MACE_energy=-90873.16402690977 pbc="F F F"
C       10.37457851      14.54745748      21.43640577       0.19644169      -0.16837965      -0.31441464
N       11.83959081      12.44486224      22.58482624      -0.30565978       0.02492071      -0.04960026
O       11.36260205      13.04392595      19.75530891      -0.05387338       0.07503776       0.24808017
C       11.64323961      14.00658810      20.77473007      -0.05461703       0.17572052      -0.05432823
N       14.75850747      14.31812598      19.72633884      -0.26886805       0.09559686      -0.02162697
O       15.81181076      18.96865421      22.85958357       0.20599955      -0.62742536       0.22619948
C       10.73896693      13.56663670      18.60438882       0.00420013       0.03236260       0.04792544
N       17.71448289      21.87449287      22.31865502      -0.45802585       0.13690968      -0.16564075
O       20.50475272      17.61801570      13.81055135       0.74080127       0.30852428      -0.08220290
C       12.49912308      13.28158251      21.79671340       0.29883852       0.15303008      -0.24398333
N       18.88782561      22.44500314      22.81676976      -0.61855110       0.04313849       0.74217510
O       23.28355458      21.52629166      16.96580503      -0.17600861       0.12549905      -0.30779914
C       12.49256294      11.76701764      23.51037021       0.17699348      -0.08070036       0.09143799
N       21.02608808      22.45440161      19.87722076       0.11050009      -0.59992859       0.56672609
O       19.99122319      24.12490122      18.77767206       0.28231650      -0.15890235       0.11568849
C       13.86050841      11.88007428      23.70427621      -0.01863419       0.04896692      -0.04498736
N       22.06372312      23.41433320      16.81739620      -0.08201859       0.19618985       0.27495532
O       19.60458939      20.86863835      18.01199137      -0.08031271      -0.08706020       0.07278475
C       14.55918690      12.74733664      22.88559209      -0.15107897      -0.05494345      -0.07298516
N       22.06702284      19.02220253      14.66322942       0.17032532       0.14567995       0.20438922
O       21.05299639      22.95725108      22.48406522      -0.43540845      -0.32966557      -0.08259489
C       13.88441944      13.47604731      21.90464071      -0.11950878      -0.33997295       0.27577387
N       24.34565760      17.42872137       9.95744345       0.00733264       0.04215340      -0.01665155
O       15.05217178      20.98945928      22.24338274       0.54824679      -0.30052003       0.21971066
C       14.64493478      14.43285025      21.09484600       0.15480576       0.36145485       0.26436868
N       17.86880638      18.78787975      18.73790993      -0.03564176      -0.01257086      -0.12492717
C       14.44653709      13.13934692      18.95411984       0.07129546      -0.49502926      -0.05374223
C       15.59423662      12.13140850      19.00570055      -0.14577991       0.17421567      -0.09550378
C       15.33352566      15.54037083      21.53991447      -0.14577026      -0.37712344       0.15272929
C       15.46934574      16.02350501      22.94869671      -0.20724830       0.05119566      -0.06358316
C       14.41492869      17.06055926      23.39637930       0.15720855       0.22703406       0.04379519
C       14.62860395      17.36777031      24.88107162       0.02306578       0.04139503      -0.22733026
C       13.00154063      16.52013174      23.18808915       0.22663739       0.16723230      -0.05721796
C       14.55047829      18.34940968      22.57655416      -0.59688547      -0.14098480      -0.07102625
C       15.92529463      20.26861387      22.67640678      -0.25062228       0.98449135      -0.47219309
C       17.27591741      20.76356827      23.15588613      -0.20549289       0.00965942       0.25312019
C       19.99384176      22.50818747      22.06052660       0.86241449       0.37197460      -0.54956725
C       19.84631321      22.05029463      20.60646392       0.00424363       0.15372827      -0.17576071
C       20.99780498      23.45500397      18.99275564      -0.14086749       0.31141617      -0.37553309
C       22.31189326      23.67718952      18.23555280       0.03383372       0.12945558       0.28528320
C       22.88843925      25.07551509      18.51046814       0.06735956      -0.15567468       0.07083231
C       24.24610224      25.22900477      17.83087929      -0.29028075      -0.02316698      -0.05821837
C       23.02331000      25.27355542      20.02005026      -0.23131687       0.03111337      -0.16815342
C       22.58873554      22.29687796      16.29924517       0.50158145      -0.51468445       0.00056055
C       22.25277178      21.89851986      14.85268344      -0.12584505      -0.27216325      -0.32250786
C       20.91327371      21.14668832      14.86304574       0.12093507       0.05891469       0.07617156
C       21.10943986      19.75200412      15.45574880      -0.56513089      -0.05048243       0.23266174
C       21.66033798      18.05288377      13.82632133      -1.26603357      -0.36404428       0.29734435
C       22.66226159      17.53142687      12.93311253       0.31527351      -0.60404675      -0.91825827
C       23.33605678      17.04645794      12.06118754      -0.21804549       0.45888622       0.75648882
C       24.27639896      16.49276564      11.08953165       0.14214975      -0.21671946      -0.02846761
C       23.06023593      17.72295515       9.35529760      -0.09358944       0.00924247      -0.03992114
C       25.31243561      17.08108450       8.93555203      -0.03620588       0.01382546       0.06891182
C       25.64015907      16.42153622      11.79915218      -0.07445272      -0.04697669      -0.06717991
C       23.80732227      15.07140231      10.71960018       0.03775951       0.12394307      -0.05785185
C       23.38731437      19.60409604      14.68524222       0.45520028       0.13567671       0.02113546
C       23.34711499      21.05147283      14.18749727      -0.00697332       0.00309792       0.33234767
C       21.21141094      24.35939669      16.12224198      -0.29438044       0.35438024      -0.28429037
C       19.60247682      20.53898883      20.47483037      -0.05531024       0.16657001      -0.51752688
C       19.95414666      19.99469649      19.07505374       0.18659500      -0.28523086       0.24635790
C       19.30247950      18.61585941      18.88160367       0.32906774       0.20870928      -0.10962089
C       17.58025831      19.59291895      17.56815631       0.16500144       0.32033606      -0.05155171
C       18.20898335      20.96614037      17.79513290      -0.22567948      -0.10483796      -0.18532063
C       18.87629672      22.89571988      24.20092262       0.26075243      -0.07511130       0.12756339
C       18.46170442      21.74461867      25.11623137      -0.19594226       0.22527646      -0.12618857
C       17.13034324      21.17165860      24.63549661       0.30501161      -0.19408210      -0.04518241
C       15.91418700      16.14365614      20.38430099       0.11528483      -0.26270541      -0.43611638
C       15.53831625      15.34685207      19.27419096       0.25090980       0.56102924       0.08144341
C       15.93641241      15.67708391      17.98392713      -0.06933188      -0.14406552      -0.16086407
C       16.70331450      16.80752213      17.80780389       0.13483198       0.06200444      -0.05549113
C       17.09667456      17.60157050      18.89713999      -0.05164202       0.10458008       0.22085227
C       16.71535325      17.26701979      20.18270502      -0.00734004      -0.06917661      -0.15735331
F       22.12861975      23.03387877      14.03244220       0.02352055       0.02005397       0.07865620
H        9.79229192      15.13653897      20.73463258      -0.02500530       0.07523822      -0.00894551
H        9.78268958      13.71039178      21.79263808      -0.02418340       0.02699163       0.03861262
H       10.64531144      15.17531606      22.27917180      -0.04058392       0.06078655       0.05231231
H       12.21647991      14.83590319      20.32622125      -0.10683597      -0.24932689       0.14332591
H        9.73384791      13.95159300      18.82221875       0.20242704      -0.06795986      -0.10385365
H       11.34713153      14.36735293      18.15736262      -0.13538037      -0.11356128       0.03925226
H       10.66133161      12.73036307      17.90829769      -0.03952443       0.21303557      -0.00153587
H       11.88760665      11.11149558      24.11689900       0.02069570      -0.12647067       0.13572285
H       14.35911534      11.30795395      24.46832684       0.03529415      -0.04610032       0.05979549
H       15.62825036      12.86227551      22.98740867       0.02428669       0.03413180      -0.00077478
H       13.53143303      12.68501549      19.34126229       0.20378655       0.21225994      -0.18094030
H       14.26971091      13.45097478      17.92271556      -0.11762518      -0.05035830       0.16332645
H       15.75933413      11.79934232      20.02779755       0.00101560      -0.02079730       0.02764086
H       15.35447091      11.26759694      18.39293422       0.03814615      -0.10879224      -0.02869899
H       16.51097100      12.58494860      18.63479947       0.04189765      -0.03957940      -0.00384084
H       15.39822028      15.17234671      23.62752919       0.09478127       0.10867105       0.03437765
H       16.45588371      16.47514225      23.06378533       0.00804079      -0.11354661       0.11687746
H       14.47292534      16.47084311      25.47614667      -0.01523705      -0.02955623       0.04607670
H       15.64036125      17.72793497      25.05219700       0.00913109      -0.00724216       0.07243013
H       13.92700996      18.13085539      25.21457869      -0.01647068       0.02071281       0.06838738
H       12.26807278      17.19986225      23.61371504      -0.08069235       0.04814908       0.02877932
H       12.79342104      16.40515179      22.12867442      -0.06965339      -0.06150699      -0.06959891
H       12.89592132      15.55134924      23.66916260      -0.04334572      -0.06210250       0.01515340
H       13.75413897      19.05923251      22.82023366       0.13911451      -0.18075125      -0.02741113
H       14.50649210      18.13301046      21.50563709      -0.02739930       0.08837500       0.18229541
H       18.01107655      19.95785110      23.06920929      -0.12849784       0.13573403      -0.00061311
H       16.96725065      22.56845624      22.26327147       0.23755663      -0.13491209       0.03415169
H       19.01479720      22.60838895      20.16283709       0.25990503      -0.24638338       0.12103785
H       21.89562591      21.99814433      20.11292890      -0.18301735       0.28336200      -0.21091336
H       23.04266391      22.92755221      18.55293705      -0.16938440       0.24173963      -0.05018806
H       22.19639575      25.82807893      18.12366762       0.03978506      -0.11914719       0.04034467
H       24.65084998      26.21758652      18.02847434       0.07862640       0.05247014      -0.02893296
H       24.94263154      24.48652969      18.21478255       0.06557179      -0.03350660       0.00991613
H       24.16437855      25.09464458      16.75451710       0.05557787       0.01458042      -0.04965809
H       22.05969111      25.17391488      20.51570934       0.05484522       0.03391198       0.07094589
H       23.69926539      24.53555039      20.44694464       0.06001360      -0.03445753       0.03639465
H       23.41511841      26.26455543      20.22962630       0.05648150       0.05575942       0.06759689
H       20.17724046      21.68414011      15.46032960       0.05017142       0.01855556      -0.07315943
H       20.55086975      21.06574822      13.83500079       0.06712732       0.03356035       0.10963581
H       20.16527496      19.20267491      15.45866010       0.29000064       0.16497405       0.02329972
H       21.48270449      19.83926112      16.47984969      -0.12179103      -0.08790815      -0.18475160
H       23.18000875      18.58453755       8.70031828      -0.06628779      -0.01498342      -0.01173038
H       22.66078259      16.89176272       8.75447387       0.01551807       0.05574397       0.03854060
H       22.33802764      17.97174879      10.13036238      -0.00579476       0.01009950      -0.12667653
H       25.03359541      16.18547951       8.36063583       0.05286506       0.03199661       0.01906761
H       25.37788334      17.91921028       8.24207304       0.05385011      -0.08581611      -0.00973685
H       26.29139251      16.93194116       9.38005105       0.05264297      -0.02927215      -0.08056474
H       25.50872342      15.99959342      12.79219652       0.04862391      -0.03434718      -0.02148560
H       26.33003665      15.78963758      11.24802806       0.06136530      -0.01342951      -0.02961768
H       26.05585641      17.42062787      11.89214403       0.01393613       0.02417235       0.01408217
H       22.82474245      15.09653368      10.25350365       0.02591712      -0.03239286       0.00677974
H       24.51706092      14.61170186      10.03520043      -0.00946145      -0.03060550      -0.01252500
H       23.74273729      14.46280504      11.61817395       0.00416607      -0.04144711      -0.02087255
H       23.75038676      19.59319978      15.71655346      -0.02421447      -0.06723425      -0.26151535
H       24.05228363      19.01729677      14.05176050      -0.08508603       0.09930170       0.14271956
H       23.14095376      21.06309824      13.11434415      -0.03339243       0.02505339       0.14367248
H       24.31644913      21.51903323      14.36141357      -0.05240946      -0.00301091      -0.05863214
H       20.59313956      24.86150420      16.86188553       0.12267124      -0.07708950      -0.10164518
H       21.80792823      25.09109651      15.57624150      -0.09711059      -0.05185402      -0.01252028
H       20.54608978      23.85896874      15.42448946       0.11649155       0.10569651       0.08998736
H       20.21356471      20.00123546      21.19971514      -0.01464008      -0.08902911       0.04254473
H       18.55128838      20.33887459      20.67323114       0.19352401      -0.01397281       0.08258692
H       21.04097057      19.89813278      18.97843950      -0.21193141      -0.05230675       0.05913677
H       19.50048351      17.98578364      19.74895875       0.03870211       0.03925956      -0.08021969
H       19.73972874      18.13532827      17.98756907      -0.04884353       0.01929984       0.16971306
H       17.99173398      19.15986006      16.63840690      -0.10898103       0.04998575       0.15045322
H       16.49992740      19.69717795      17.46464916       0.07133712      -0.00605817      -0.04719201
H       17.72111250      21.45359677      18.64575342      -0.00181588      -0.01927739      -0.08219198
H       18.09772662      21.59569876      16.91207251      -0.07327074      -0.01721294       0.11949591
H       19.88062132      23.25226873      24.43147078      -0.24143372      -0.01820872      -0.04385486
H       18.16741936      23.72638137      24.29082683       0.07500900      -0.06259339       0.00536729
H       18.37178525      22.10868650      26.13800986       0.05396347      -0.03802917       0.03360360
H       19.22687291      20.96731055      25.08959254       0.02428810       0.04538528       0.04893833
H       16.34316813      21.92615563      24.71774299       0.01820630      -0.08750102      -0.02954217
H       16.84206332      20.30505872      25.23043943      -0.04163399       0.04038728      -0.01520189
H       15.65749822      15.07227563      17.13397460      -0.01130703      -0.00902412      -0.01601238
H       17.01849969      17.07967978      16.81126974       0.00286595       0.01726873      -0.00347736
H       17.03343875      17.88704941      21.00604653      -0.03634225       0.05376614       0.00144666
