151
Properties=species:S:1:pos:R:3:MACE_forces:R:3 energy:=T -221.330103696574=T gnorm:=T 0.003803011626=T xtb:=T 6.7.1=T (edcfbbe)=T MACE_energy=-90873.28066794331 pbc="F F F"
C       10.64791719      14.09735562      21.08359557       0.25444351      -0.16594045      -0.26012258
N       12.23138710      12.16742048      22.41219582      -0.31329425       0.03568178      -0.10454169
O       11.93677307      12.68676000      19.53286298      -0.05732132      -0.01369269       0.21129659
C       12.01976322      13.68077499      20.55310427      -0.05637670       0.19043052      -0.03889215
N       15.22755738      14.20472287      19.74120412      -0.31694010      -0.01898729       0.15821952
O       15.64759113      19.13980285      22.64986157       0.07003716      -0.48706269       0.37191376
C       11.39011986      13.13153983      18.31167336       0.08595302       0.03573721       0.11168289
N       17.73862670      21.93417005      21.88605287      -0.37003543       0.21099492      -0.11403255
O       19.62780361      19.52924158      12.67237781       0.74581097      -0.13221017       0.26466003
C       12.85370764      13.06355755      21.65971600       0.32185999       0.19487747      -0.17437241
N       18.84881604      22.54094775      22.48185908      -0.86094049       0.05040193       0.64484038
O       22.92390707      21.37152828      17.17474302      -0.06437743       0.19531453      -0.31841552
C       12.88736054      11.57256314      23.39149728       0.09406283      -0.13345821       0.16051173
N       21.37373451      22.50043598      19.84720924      -0.14918523      -0.63695175       0.39603986
O       20.71011527      24.32041458      18.68993027       0.30878084      -0.17617016       0.13171339
C       14.21325252      11.84566207      23.69143703      -0.01365856       0.03700462      -0.05447909
N       22.95441953      23.61196371      17.04114319       0.17809682       0.26363038       0.34401335
O       19.21033333      21.23735358      17.84099718      -0.01834369      -0.07244201       0.07380144
C       14.87056759      12.78055951      22.91378204      -0.14080482      -0.07564075      -0.03318836
N       21.26530430      19.96096100      14.18179673       0.10043818       0.09546245       0.24167665
O       21.02273103      23.09353861      22.39573486      -0.45806473      -0.29950975      -0.07192343
C       14.19695678      13.40830260      21.86577782      -0.11840779      -0.24403982       0.20540952
N       23.90825362      16.29742862      11.04666189       0.00900767       0.09928670       0.00393397
O       15.24859863      20.89701863      21.31607926       0.34139073      -0.22614346       0.35459312
C       14.92146263      14.40560303      21.07012442       0.04121750       0.32716782       0.25148062
N       17.94924181      18.92171005      18.78410434      -0.23028682      -0.31027833      -0.12412432
C       15.05758076      12.97185966      19.01214789       0.14280755      -0.50571539      -0.09186602
C       16.30733279      12.09840085      19.10263247      -0.15650965       0.14257943      -0.05261297
C       15.43243227      15.60941374      21.50153458      -0.11607032      -0.27760939       0.07007296
C       15.34240912      16.20805332      22.86830673      -0.13714607       0.01385763      -0.04339921
C       14.20636774      17.23597906      23.07741280       0.13153045       0.25512719       0.04968885
C       14.16948475      17.62685289      24.55714466       0.07933975      -0.03838770      -0.19927449
C       12.86331338      16.63357701      22.66991776       0.22965484       0.16559438      -0.03072698
C       14.43543111      18.49598315      22.23371826      -0.55288102      -0.18199714      -0.21801326
C       15.93446552      20.31756146      22.12852896      -0.05115942       0.79134057      -0.68330772
C       17.20628951      20.87774921      22.74016020      -0.20277842      -0.04771842       0.10525031
C       20.03120838      22.61830887      21.85174910       1.18413358       0.25291680      -0.38455039
C       20.07805765      22.16334226      20.39012471       0.01766252       0.16830094      -0.17888802
C       21.58626576      23.53285973      19.03114356      -0.08691702       0.36748653      -0.39999757
C       23.02376859      23.62998684      18.50485670      -0.10546672      -0.06083506       0.23765294
C       23.76350035      24.83549106      19.10118016       0.04293405      -0.13132917      -0.00912705
C       25.24479031      24.78191108      18.72892042      -0.28284246       0.09234782      -0.11837451
C       23.60469314      24.81939763      20.62196094      -0.19863331       0.13852252      -0.18225431
C       22.90117350      22.39492265      16.48591622       0.25630519      -0.75533395      -0.04229303
C       22.85069022      22.25084097      14.95583886      -0.01765793      -0.12453385      -0.40532406
C       21.42128224      22.38706871      14.41528467       0.09452672      -0.07548854       0.11618336
C       20.60098540      21.13007140      14.70736281      -0.42634425       0.30857605      -0.00075574
C       20.73115711      19.26914831      13.16275609      -1.36722325       0.32560449      -0.33616483
C       21.49751530      18.15493365      12.66653619       0.34463610      -0.90138020      -0.75738156
C       21.98650670      17.20781454      12.10591210      -0.23603105       0.76603402       0.62002303
C       22.54439852      15.99870529      11.50181235      -0.08330752      -0.30706474       0.04972043
C       23.96944646      17.35726720      10.05892868       0.00195196       0.08659450      -0.03816917
C       24.67764877      15.15112497      10.60797859      -0.04136450      -0.01958916       0.03430215
C       22.56991605      14.93063317      12.60813977      -0.03358500       0.03118696      -0.13314688
C       21.57483657      15.56038336      10.38467347       0.12439148       0.04092029      -0.02621259
C       22.57336447      19.72703792      14.74076867       0.46259255      -0.21340080       0.17074137
C       23.47839558      20.93222721      14.48462673      -0.14689730       0.03298550       0.40547150
C       22.67266581      24.87721155      16.39452772      -0.21408919       0.42992582      -0.21931347
C       19.81966711      20.67254728      20.16819771      -0.22689252       0.25507624      -0.34630911
C       19.90557834      20.31495874      18.67192017       0.37084483      -0.30095612       0.04414319
C       19.35850025      18.89897730      18.44758857       0.26816605       0.29991246      -0.13086125
C       17.23431982      19.80685208      17.88225373       0.06538156       0.35979445      -0.12387155
C       17.80602650      21.21416741      18.03876419      -0.22442544      -0.01881780      -0.03986514
C       18.65795167      23.09257275      23.81557671       0.20815064      -0.09324451       0.15340247
C       18.14101238      22.00953432      24.75932954      -0.12790118       0.21288539      -0.15638437
C       16.88561776      21.37612049      24.16329345       0.37985687      -0.17608577       0.03938797
C       16.09926427      16.18219143      20.37924538       0.08405679      -0.36907543      -0.38337024
C       15.95833028      15.27172800      19.30257590       0.27643908       0.70181702       0.00971564
C       16.51332416      15.54009551      18.05514378      -0.02579317      -0.12720832      -0.15286431
C       17.17991641      16.73335160      17.88471172       0.09961200       0.10570536      -0.07736583
C       17.32102436      17.64645974      18.94030239       0.03885732       0.14758793       0.25878557
C       16.80943178      17.36496526      20.18796018       0.01762959      -0.05610491      -0.15684041
F       23.64124177      23.26177200      14.37315532      -0.01039734       0.01598531       0.07641727
H       10.77492359      14.75825775      21.93469548      -0.03169136       0.06056107       0.05863556
H       10.08227256      14.62079141      20.31823035      -0.04131482       0.05378178      -0.02355432
H       10.10700565      13.21104076      21.39816437      -0.04803658       0.01465979       0.02672045
H       12.54518521      14.56009401      20.14474296      -0.10861162      -0.24684641       0.12137776
H       10.33075674      13.38140754      18.40572671       0.03724493      -0.00345145      -0.04113193
H       11.93558034      14.00474803      17.93379596      -0.05419960      -0.05713781      -0.01294792
H       11.50362050      12.30042150      17.61886241      -0.05857811       0.12227406      -0.06914225
H       12.31732874      10.84954885      23.95854066       0.06720516      -0.04774912       0.09945309
H       14.71062588      11.33987444      24.50286552       0.02699106      -0.03155865       0.04906002
H       15.90725053      13.02309402      23.09688633       0.01438268       0.02471709      -0.00466301
H       14.19635234      12.43711292      19.41688017       0.18461073       0.20334684      -0.22758638
H       14.84884300      13.21842528      17.96793998      -0.09389970      -0.04139333       0.16377849
H       17.17601622      12.64312133      18.74003013       0.05027985      -0.03412340      -0.00410680
H       16.48769537      11.80335639      20.13374306       0.01225620      -0.01304125       0.02448470
H       16.17601795      11.20368510      18.50177773       0.04136689      -0.10110060      -0.03284285
H       15.19322430      15.40750861      23.59478636       0.07095489       0.11219091       0.05272505
H       16.28912260      16.70319837      23.09140376      -0.02599355      -0.10764873       0.13057092
H       13.38369388      18.35646057      24.73772817      -0.05055700       0.06680248       0.05454110
H       13.97540135      16.75246621      25.17273105      -0.01530349      -0.04845500       0.04513258
H       15.12023794      18.05927870      24.85704721       0.01613318       0.00743762       0.08947112
H       12.69822275      15.70266086      23.20620966      -0.05686294      -0.05013621       0.00224927
H       12.05043232      17.31773104      22.89973377      -0.08579703       0.02001120       0.01788165
H       12.84778145      16.42562136      21.60372112      -0.07069321      -0.05764506      -0.04650983
H       13.60850820      19.20276855      22.35951243       0.13979923      -0.14120273      -0.00303453
H       14.51551659      18.25181118      21.17035802      -0.00760446       0.06430002       0.20776057
H       17.95481760      20.08031621      22.79862015      -0.13984601       0.13819815      -0.01366757
H       17.00442880      22.62104238      21.70337055       0.26644361      -0.17535148       0.00752502
H       19.34813451      22.76165627      19.83328904       0.17418989      -0.21405901       0.12054633
H       22.14745056      21.92106375      20.13492167      -0.07937112       0.26031893      -0.19260547
H       23.56254286      22.72043965      18.78914211      -0.13654730       0.24699556      -0.03322312
H       23.31634324      25.75823932      18.72498344       0.01918797      -0.10177463       0.02998673
H       25.75086715      25.67415967      19.08603322       0.08408747       0.03376311       0.01102002
H       25.71137347      23.91371891      19.18910398       0.06374957      -0.06577500       0.02441976
H       25.38108969      24.71073538      17.65288485       0.07284316       0.00024580      -0.06042808
H       23.97327195      23.88614522      21.04170158       0.04284359      -0.04570307       0.04008543
H       24.16557095      25.63962352      21.06009542       0.04987457       0.02737803       0.07212738
H       22.56087906      24.92536540      20.91114452       0.08631998      -0.01028547       0.07813803
H       20.91403405      23.24291227      14.85931891       0.07597626       0.00892928      -0.05203548
H       21.48961950      22.53889005      13.33510904       0.02217131       0.01963208       0.11200888
H       19.62334772      21.20596933      14.22678366       0.20214204      -0.03964960       0.19966646
H       20.45967438      21.01875690      15.78751188      -0.01730414      -0.01372536      -0.19804270
H       23.66534135      17.02829219       9.05325023      -0.00292731       0.04972172       0.06819068
H       23.32962505      18.18242624      10.36703837       0.12030613      -0.02135304      -0.11128377
H       24.99747744      17.71483807      10.00207453      -0.07091170       0.02426090      -0.04374013
H       24.26563115      14.66478662       9.71059262       0.03585520      -0.00563884       0.05828893
H       25.68227912      15.49787533      10.36968678      -0.02073977      -0.07852133      -0.00268455
H       24.75356977      14.41957666      11.40712008       0.04423628      -0.05205974      -0.07812229
H       22.69125299      13.94049804      12.17901517       0.04654530      -0.08031801       0.01329630
H       23.38255610      15.13325966      13.29908854       0.02767325       0.01281516       0.03369006
H       21.63097855      14.95610503      13.15419138      -0.00484840      -0.05087940      -0.02201942
H       20.60184456      15.34071849      10.81594182      -0.02774671      -0.01284701       0.00057700
H       21.44908543      16.35133354       9.64900495      -0.01058052      -0.03388976      -0.01196481
H       21.94845442      14.66771206       9.88925363       0.00995551      -0.04876335      -0.02371361
H       22.47223834      19.58235526      15.82019224       0.05524176      -0.05100967      -0.28577258
H       23.00671374      18.83491715      14.28801257      -0.04455041       0.16926193       0.18022473
H       23.66335760      21.03388964      13.41316044      -0.05347499       0.05291141       0.09428637
H       24.43185913      20.78612048      14.99153949      -0.03256184       0.05122147      -0.04961171
H       22.38534765      24.74470463      15.35921915       0.08530709      -0.01082327       0.14627073
H       21.84790556      25.35506432      16.92747493       0.14993265      -0.02018633      -0.06323401
H       23.55422032      25.51736217      16.42594666      -0.08551856       0.00543321      -0.07543869
H       20.56522890      20.08580404      20.70429181      -0.00123958      -0.06461909       0.07070919
H       18.82742598      20.41138086      20.52733405       0.28621030       0.00090030       0.08933817
H       20.94274095      20.38300343      18.32409977      -0.25127859      -0.09159248       0.10903633
H       19.86935979      18.19017351      19.10022109      -0.00688935       0.03764981      -0.06199095
H       19.53653744      18.60834636      17.39622582      -0.00531703       0.00718040       0.19471273
H       17.32500922      19.48689109      16.82801912      -0.04926351       0.05513675       0.16055103
H       16.17851529      19.81458503      18.16061552       0.10287050       0.00416876      -0.07833183
H       17.54925023      21.59325110      19.03478891       0.00146478      -0.02035815      -0.12253036
H       17.39721049      21.88538463      17.28154750      -0.00970869      -0.09123553       0.15243617
H       19.61970191      23.48661018      24.14292995      -0.21987819      -0.03010279      -0.07318313
H       17.93504493      23.91332326      23.74854312       0.04595328      -0.03707180       0.03700789
H       17.91773185      22.45210197      25.72912737       0.04287314      -0.04530911       0.02628627
H       18.91104684      21.24883179      24.89345410      -0.00623123       0.05453674       0.03513347
H       16.08336970      22.11599847      24.10999151      -0.01644039      -0.06115653      -0.02545154
H       16.54717837      20.54003562      24.77294113      -0.06827411       0.03712348      -0.02545058
H       16.42281671      14.84444879      17.23477347      -0.00839779      -0.03776220      -0.02494172
H       17.60608435      16.97494839      16.92137129      -0.00209537       0.01905571      -0.02333870
H       16.96620251      18.06589425      20.98989690       0.01339740       0.05613719      -0.04484348
