151
Properties=species:S:1:pos:R:3:MACE_forces:R:3 energy:=T -221.329833437681=T gnorm:=T 0.004411711734=T xtb:=T 6.7.1=T (edcfbbe)=T MACE_energy=-90873.26906178045 pbc="F F F"
C       10.64458887      14.36986612      20.17784692       0.30046980      -0.21395215      -0.19101102
N       11.67731729      12.94335349      22.35196783      -0.27088609      -0.03158254      -0.15609848
O       12.26660151      12.69971486      19.39820819      -0.12569388       0.03899456       0.15351384
C       12.09429418      13.88750270      20.17045508      -0.06817644       0.19435021      -0.08905187
N       15.44329850      13.95935263      20.11757733      -0.27348290       0.04305577      -0.10257936
O       15.79628963      19.49876320      21.70148312      -0.15817217      -0.42685962       0.54155524
C       12.26697992      12.90347209      18.00242193       0.00396369       0.04381436       0.15378245
N       18.59450089      21.61740070      20.98243860      -0.24360475       0.13381802      -0.20568068
O       18.80038023      21.37070641      14.43840360       0.60319620      -0.40184859      -0.04948227
C       12.55778659      13.55904263      21.57733397       0.36579594       0.11464058      -0.19397259
N       19.71327407      22.05306996      21.70140573      -0.91089839       0.28463023       0.52413198
O       24.16637933      21.11247985      16.45942160      -0.15329236       0.43569946      -0.09382831
C       12.00844997      12.63624190      23.59353273       0.06129658      -0.05308972       0.22070093
N       22.45378017      21.46116271      19.38768379      -0.32172723      -0.69614815       0.17562503
O       22.19871740      23.66298956      19.01165504       0.24076134      -0.29807792       0.08735065
C       13.24292166      12.94016937      24.14554262      -0.01534296       0.01827245      -0.05985258
N       24.31203842      23.22778110      17.19158237       0.32006140       0.12816046       0.45057112
O       20.08643990      20.27064404      17.35145876       0.14681714      -0.21333101       0.10844031
C       14.17153592      13.57699394      23.34194984      -0.10350420      -0.10367891      -0.04228157
N       21.07319124      21.35263983      14.48588745       0.18838098       0.20463589      -0.13846923
O       21.94928836      22.14822174      21.90525921      -0.57372415      -0.19506809      -0.18089510
C       13.84505383      13.89101789      22.02397868      -0.20703940      -0.17809818       0.27273701
N       20.80155978      16.46737331      12.23974343       0.07701228       0.07084589       0.00448811
O       16.10045929      20.95570250      20.02395509       0.20391780      -0.21652115       0.51629117
C       14.83545543      14.57895231      21.18698767       0.00482769       0.45336953       0.21105911
N       18.67735057      18.13316887      18.48746280      -0.08175535      -0.27080257      -0.07549406
C       15.36681679      12.55294112      19.81127188       0.09785058      -0.53429529       0.14414423
C       16.38032226      11.74917115      20.62478929      -0.09531114       0.13172360      -0.18143760
C       15.31157582      15.86226682      21.33565022      -0.18201974      -0.32118315       0.19986770
C       14.95763917      16.82942156      22.42080626      -0.12673849       0.02438574      -0.11351331
C       13.96318150      17.95632658      22.05627982       0.17549701       0.22166502       0.02745399
C       13.55714526      18.67707217      23.34496173       0.11430647      -0.07852188      -0.18801290
C       12.72315620      17.37930105      21.37691398       0.25187236       0.15011763      -0.03421541
C       14.60372330      18.97234167      21.10203826      -0.39990281      -0.17310384      -0.35125484
C       16.45646985      20.44650849      21.06312778       0.32926186       0.71313098      -0.87411937
C       17.70720232      20.83446251      21.83624290      -0.22679131       0.03438120       0.08280039
C       20.95826784      21.84151742      21.25014377       1.21757458      -0.03759068      -0.21694269
C       21.08996086      21.27129157      19.83112888       0.02819377       0.23987347      -0.03270480
C       22.91330745      22.66593048      19.03886914       0.03698551       0.41917135      -0.24635345
C       24.36918610      22.68168856      18.55276830      -0.07338591      -0.08306893       0.21776205
C       25.31154067      23.38363174      19.53646840       0.00760322      -0.09166862      -0.08347999
C       26.74199987      23.39058334      18.99807838      -0.22634024       0.13397853      -0.03462622
C       25.26032271      22.62439092      20.86395078      -0.23054086       0.24452273      -0.07872427
C       24.05406000      22.32039142      16.23924931       0.24198344      -0.84080085      -0.41702082
C       23.57600705      22.76723983      14.84144529      -0.17924881       0.06118757      -0.43933513
C       22.22795519      23.48892281      14.87027056       0.08527478      -0.19247743       0.07408273
C       21.13317023      22.53127461      15.32113672      -0.28533704       0.34129012       0.26120092
C       19.87323579      20.79766874      14.23305548      -0.86199113       0.84222182       0.15575088
C       19.89523932      19.46478958      13.69047492      -0.40258791      -1.12327735      -0.33122929
C       19.76699157      18.32322247      13.32888747       0.29961280       0.93192610       0.20835654
C       19.58983816      16.93051250      12.92898293      -0.23114455      -0.23489238       0.16182868
C       21.26216870      17.34396772      11.18218039       0.00747760       0.03484084      -0.07042688
C       20.73652696      15.09964496      11.76578827      -0.00098420       0.04817952       0.03110065
C       19.41017129      16.14051566      14.23993141      -0.05946646       0.00293007      -0.05475464
C       18.29813718      16.85003412      12.08924338       0.14385715       0.00523630       0.02110431
C       22.31603844      20.63419759      14.30992757       0.30479689      -0.44315188       0.04330917
C       23.45549375      21.56808670      13.89939971       0.08836828      -0.00148785       0.33717906
C       24.23303967      24.66570569      17.05446487      -0.22964415       0.41120920      -0.01306417
C       20.70143889      19.80251004      19.69642468      -0.08258284       0.28345724      -0.41010026
C       20.72301035      19.34708933      18.22364465       0.21272751      -0.24958581       0.01134683
C       20.05893539      17.96678239      18.09588598       0.18494039       0.28450935      -0.03598051
C       17.99979057      19.01478627      17.55625372       0.02042318       0.45182784      -0.34073431
C       18.68853733      20.37646519      17.56888693      -0.53305369       0.15871529      -0.09421072
C       19.46011038      22.81055047      22.91957691       0.21721270      -0.06652789       0.18716512
C       18.56223653      22.01270515      23.86021822      -0.10361533       0.22460263      -0.22998626
C       17.29812795      21.59005795      23.11411792       0.26613038      -0.28446701       0.11417298
C       16.27241109      16.04817363      20.29809989       0.14776706      -0.30196674      -0.29025979
C       16.33837645      14.83428873      19.56810189       0.22566584       0.59165937      -0.05269051
C       17.21321335      14.68634641      18.49685597      -0.00554172      -0.23886195      -0.08719075
C       17.99579843      15.76169385      18.13375588       0.09631286       0.06913035      -0.08722327
C       17.93126796      16.97275379      18.83668520       0.08951820       0.26631023       0.23874385
C       17.09708031      17.10586357      19.92768297      -0.00255192      -0.12953468      -0.12658051
F       24.53822489      23.63476134      14.28406905       0.00377121      -0.03626742       0.11531965
H       10.55030661      15.22422567      20.83978156      -0.07019678       0.08753469       0.02479653
H       10.33344045      14.66324643      19.17930599      -0.01461933       0.05988414      -0.03375666
H       10.00712973      13.56847519      20.53761231      -0.02802883       0.03901244       0.02447715
H       12.74858794      14.67030212      19.75382194      -0.13874803      -0.19695409       0.13096528
H       11.28409398      13.21143957      17.63554182       0.06405864      -0.01703636      -0.02288782
H       13.00977998      13.65884544      17.72039633      -0.03622923      -0.05525546      -0.03436936
H       12.53206462      11.94457969      17.56259042      -0.02370505       0.09624514      -0.09574033
H       11.24175423      12.13245848      24.16540609       0.03364809      -0.03063250       0.12663496
H       13.46777433      12.68436673      25.16796098       0.01093180      -0.01705201       0.05108877
H       15.15183879      13.82533161      23.72254231       0.02123576       0.03203855      -0.02712423
H       14.35569773      12.19765725      20.02047284       0.26316821       0.13948216      -0.17597419
H       15.56085801      12.42782121      18.74383378      -0.14978579       0.02437004       0.11757263
H       16.15617630      11.82452125      21.68612851       0.00237082      -0.00732382       0.03146114
H       16.33859415      10.70385633      20.33400808       0.04101831      -0.10998734       0.02893898
H       17.38667793      12.12419402      20.45339853       0.05411027      -0.03167215       0.02086172
H       14.51789002      16.26771012      23.24702443       0.07525994       0.11716375       0.02267069
H       15.87638970      17.29892709      22.77679383      -0.07308044      -0.08271389       0.14834866
H       12.89074085      19.50643352      23.12150425      -0.06746128       0.07982948       0.02450840
H       13.04192641      17.99299399      24.01335362      -0.04075028      -0.04222579       0.07711469
H       14.43546026      19.06552835      23.85309315       0.01051432       0.03327451       0.08858767
H       11.99475689      18.16155096      21.18048921      -0.10572798       0.04619894       0.00311660
H       12.98822304      16.91111194      20.43290110      -0.03086868      -0.05626424      -0.04613061
H       12.26681760      16.62964163      22.01772635      -0.05557469      -0.05980452       0.02582145
H       13.92018011      19.80145611      20.89461018       0.09043034      -0.15827690       0.04820065
H       14.86850075      18.50314627      20.14973686      -0.03050967       0.10879843       0.16075358
H       18.23872816      19.91800237      22.11667231      -0.10294123       0.13853932      -0.04389134
H       18.08091685      22.40768011      20.58976075       0.18952783      -0.14906240       0.08423140
H       20.45387852      21.88844866      19.18607906       0.14316147      -0.29093302       0.15870677
H       23.08953044      20.68533943      19.48632796      -0.03941522       0.28303749      -0.13433088
H       24.71238747      21.64880178      18.43906200      -0.06285181       0.29269216       0.07842286
H       24.96143012      24.40423793      19.71291555       0.04071239      -0.10985312      -0.03624733
H       27.43100763      23.68674139      19.78455416       0.06453675       0.03430193      -0.00101871
H       27.01658588      22.39436754      18.65688426       0.04316708      -0.05540699       0.00955883
H       26.86232745      24.07568997      18.16334887       0.04840277      -0.01402289      -0.07266854
H       25.89936434      23.11274822      21.59419036       0.05499766      -0.00255931       0.05429710
H       24.24855524      22.59481463      21.26421468       0.04274208      -0.05246785       0.06703632
H       25.61266235      21.60391225      20.72971089       0.05697942      -0.10696825       0.00115914
H       22.23893767      24.34241631      15.54220907       0.02367289      -0.02629425      -0.05321240
H       22.02134608      23.84543469      13.85909074       0.05924923      -0.02635534       0.07913621
H       20.15708037      23.01920675      15.26920554       0.26772673      -0.12382309       0.09606874
H       21.30451046      22.21953274      16.36059974      -0.06796096       0.09190602      -0.15219859
H       21.32521932      18.36374780      11.55306097       0.05369060      -0.03004915      -0.10422613
H       22.25634126      17.01901972      10.88147626       0.00188711       0.03961877      -0.06015451
H       20.61371212      17.33241062      10.29354967       0.04202324       0.01033207       0.02786373
H       20.41891233      14.43782220      12.56584603      -0.00389157      -0.07205981      -0.04133879
H       20.06493629      14.97311389      10.90362992       0.01818258      -0.03130844       0.06204883
H       21.73955004      14.80497782      11.45863223      -0.07289002      -0.06437054      -0.00760220
H       18.74055986      16.68595454      14.90163339      -0.02088886      -0.08729588      -0.00132873
H       18.97880218      15.16227859      14.05008855      -0.00443854      -0.08340729       0.01120751
H       20.37510598      16.02406360      14.72645385      -0.00703123       0.02183407       0.01366594
H       18.42773143      17.36341884      11.13951750      -0.03606437       0.00359922      -0.01067527
H       18.03154283      15.81340088      11.90395640      -0.02034468      -0.05487947      -0.03788593
H       17.48586612      17.33127614      12.62787630      -0.03923861      -0.03094266      -0.02824069
H       22.58749128      20.13509757      15.24569178      -0.06816185       0.04710058      -0.30664965
H       22.17650199      19.87709146      13.53783360       0.05450179       0.12619695       0.16281975
H       23.29172524      21.95690553      12.89393247      -0.03928072       0.02848560       0.08182144
H       24.38731153      21.00232989      13.91103603      -0.08583470       0.07827428      -0.01716023
H       24.33406158      24.96226501      16.01707848       0.03976429      -0.07526794       0.08385643
H       23.29079502      25.03009701      17.47096462       0.18040550       0.01909920      -0.06412275
H       25.04909188      25.11584626      17.61430376      -0.03451380       0.02437833      -0.08096923
H       21.39438228      19.18461441      20.26678716      -0.00548154      -0.06215294       0.06795697
H       19.69475112      19.65770931      20.08151490       0.21385977       0.01276574       0.05069286
H       21.75134909      19.30699879      17.84899716      -0.16027500      -0.06597505       0.12876056
H       20.53862467      17.25290209      18.76568280       0.02640144       0.00861292      -0.07500563
H       20.16930246      17.62447814      17.05277778       0.02385457      -0.01978569       0.16247218
H       18.01830108      18.60918903      16.52626919      -0.04260030       0.03893869       0.18727378
H       16.96073497      19.14382363      17.86359283       0.11935905      -0.01091736      -0.04932881
H       18.48275067      20.87455701      18.52337733       0.05510824      -0.12920494      -0.11544366
H       18.31348453      20.99530025      16.75070849       0.01855364      -0.12885452       0.20119381
H       20.42819598      23.02766108      23.36980492      -0.20687509       0.00781682      -0.09005590
H       18.97360411      23.75214684      22.64014918       0.05002341      -0.05218197       0.05625324
H       18.30535198      22.62825209      24.72110158       0.03320357      -0.05610677       0.04314369
H       19.09721075      21.12953800      24.21070128       0.01629009       0.03005187       0.03900010
H       16.71486634      22.47145447      22.83697591      -0.02663006      -0.05507450      -0.01133076
H       16.67945173      20.94441200      23.73502455      -0.04569807       0.06464164      -0.03072158
H       17.27841903      13.75817939      17.94998610       0.00633450      -0.04500594      -0.02218476
H       18.67036662      15.67182898      17.29595562       0.02156095      -0.00924703      -0.04045492
H       17.11241977      18.03113504      20.47548371       0.01656122      -0.00370365       0.00179643
