151
Properties=species:S:1:pos:R:3:MACE_forces:R:3 energy:=T -221.329572213957=T gnorm:=T 0.009908200689=T xtb:=T 6.7.1=T (edcfbbe)=T MACE_energy=-90873.18495348106 pbc="F F F"
C       11.45367808      13.57790948      20.62899846       0.24365101      -0.09822945      -0.30190749
N       13.32271901      11.90522653      21.90819420      -0.32322796      -0.09339785      -0.07457939
O       12.95668159      12.50104955      19.01161171      -0.06378891      -0.02578371       0.17956654
C       12.87673050      13.42951073      20.09254127      -0.11665131       0.15667521       0.01043362
N       15.95683878      14.38369096      19.23448765      -0.31276409      -0.02441933      -0.06118967
O       16.14971376      19.20455045      22.39814077       0.04058223      -0.60712608       0.37527726
C       12.45575228      12.97857081      17.78378604       0.07551606       0.02433912       0.17031753
N       18.35129574      21.97720519      21.96076317      -0.38395965       0.24124094      -0.07857626
O       18.28637047      19.70602285      14.34638600       0.61020280      -0.14689985      -0.12453439
C       13.80103354      12.89488843      21.17012034       0.28710363       0.28775293      -0.23074209
N       19.53444215      22.43852392      22.54820945      -0.75476022      -0.05011810       0.74843819
O       23.06085511      21.59282476      16.38524232      -0.22520836       0.23826113      -0.25088873
C       14.07329218      11.38434902      22.86220423       0.14424415      -0.06930875       0.15709578
N       21.79737633      22.69775386      19.68460274      -0.05478813      -0.60722440       0.49432775
O       21.00590539      24.54797189      18.67750859       0.26123867      -0.09239006      -0.03119349
C       15.35269436      11.83481483      23.15056385      -0.04026794      -0.00483814      -0.01527184
N       22.79946965      23.81172075      16.56122479       0.16392472       0.40218902       0.36179758
O       19.42834723      21.78905022      17.80884151      -0.01237261      -0.07107555       0.14670137
C       15.86069046      12.86758680      22.38508136      -0.07137205      -0.08713033      -0.07091890
N       20.40548005      20.50345977      14.15500047       0.16122387       0.23848248      -0.22343618
O       21.72481421      22.91048617      22.35733601      -0.45218457      -0.23872002      -0.12520252
C       15.08858970      13.41503336      21.36118387      -0.11151294      -0.30360127       0.22142187
N       19.81970781      14.77151114      13.87813191      -0.05098550       0.01302384      -0.01396563
O       15.77511370      21.19591862      21.43514616       0.39364812      -0.35256460       0.33519409
C       15.64889182      14.51537051      20.57064890       0.00549553       0.39441163       0.43220150
N       18.24581046      19.34585127      18.45340607      -0.12679203      -0.20075150      -0.21960452
C       15.98827316      13.14552427      18.49589091       0.20008752      -0.44427457      -0.09259996
C       17.36393741      12.48732485      18.58623534      -0.16105247       0.12157197      -0.06543398
C       15.99387350      15.76931292      21.02296694      -0.05350316      -0.42826355       0.09778849
C       15.78906475      16.32804862      22.39359323      -0.12720583       0.02086150      -0.05574220
C       14.60923866      17.32240049      22.53811011       0.16870724       0.20598709       0.10518489
C       14.35021536      17.55757730      24.02900335       0.08063162       0.00527149      -0.22713473
C       13.35044125      16.75744171      21.88096227       0.24091476       0.27012776       0.01436820
C       14.92437545      18.66818284      21.87254641      -0.46629751      -0.08654518      -0.33525216
C       16.46882710      20.44707965      22.08770179      -0.05080747       1.01857265      -0.57573089
C       17.80734824      20.83940526      22.69731145      -0.21014640      -0.04198799       0.12482946
C       20.66941116      22.56121848      21.83990159       1.03033085       0.31074084      -0.52431192
C       20.56335364      22.31864244      20.33456745      -0.06447010       0.12401465      -0.09455810
C       21.88600416      23.70906729      18.81379643      -0.06103269       0.33661553      -0.23895311
C       23.17217703      23.69510032      17.97322465       0.05419037      -0.03168120       0.32243515
C       24.19808427      24.73381587      18.45565038      -0.00053790      -0.14113477      -0.07352857
C       25.43727680      24.69633908      17.56343186      -0.23577558       0.09088926       0.04014671
C       24.58365657      24.41454228      19.89997988      -0.25362588       0.20042598      -0.09062310
C       22.74490483      22.66965612      15.87073287       0.32226854      -0.93314999      -0.11708698
C       22.32177757      22.67274553      14.38895303      -0.09241517      -0.05237371      -0.50448635
C       20.83368640      22.93796788      14.16489624       0.13542208      -0.17152643       0.12283322
C       20.00658410      21.78283591      14.70944290      -0.37886790       0.27226547       0.24314457
C       19.47957732      19.52547476      14.09389538      -1.01653305       0.47393090       0.20071151
C       19.95790197      18.22311490      13.70890942      -0.03495768      -1.23049710      -0.14319135
C       20.19981607      17.06754392      13.46592286      -0.01265899       1.01235127       0.09631573
C       20.60697734      15.71862710      13.07774252       0.04201015      -0.09973950      -0.16431411
C       20.00353511      14.92259842      15.30683767      -0.01198796       0.00231169       0.14640577
C       19.93946927      13.38215870      13.49136351       0.03986140       0.04999267      -0.04015270
C       20.26485299      15.57757925      11.58414962       0.04085514      -0.07081859       0.12923539
C       22.13346870      15.60508397      13.27612309      -0.15219725      -0.03382526       0.01967574
C       21.82228772      20.19277766      14.17254108       0.42082919      -0.36748251       0.15934058
C       22.67844209      21.35815895      13.69151582      -0.04262889       0.07284182       0.38793417
C       22.32509449      25.10571077      16.11607417      -0.38189723       0.33411877      -0.16238295
C       20.24245172      20.87375915      19.93868312      -0.22376129       0.33248188      -0.40995831
C       20.18819134      20.74765064      18.40504359       0.31779053      -0.39734845       0.01102882
C       19.61900851      19.38096430      18.00760373       0.26721096       0.30656578      -0.08135729
C       17.46071200      20.34663332      17.75017372       0.02722849       0.35593389      -0.24106342
C       18.03888822      21.71595688      18.09602511      -0.30427616      -0.04800843      -0.04184396
C       19.46856448      22.79861244      23.95721125       0.24583117      -0.13710315       0.10057414
C       18.94753432      21.61930341      24.77456991      -0.18097534       0.25014806      -0.10205059
C       17.61505520      21.14803859      24.19441397       0.29739790      -0.25871504      -0.05471444
C       16.57666828      16.44150840      19.91171324       0.09746977      -0.30417318      -0.40783822
C       16.52905070      15.55043780      18.81006884       0.10797950       0.64963503       0.14241135
C       17.00512491      15.92559503      17.55761530       0.01481611      -0.15506693      -0.20787707
C       17.54787496      17.18485534      17.41370567       0.11834707       0.09535532      -0.14767150
C       17.65267669      18.04983016      18.51101686       0.01991913       0.20335664       0.45905420
C       17.18272138      17.68110754      19.75285121       0.03403098      -0.04902296      -0.26412170
F       23.05863319      23.67143599      13.72118871       0.03906603       0.06206168       0.03385740
H       11.45516904      14.24757989      21.48326370      -0.06412786       0.04548426       0.05633798
H       10.79670107      13.98760721      19.86694173      -0.03183232       0.05395450      -0.00227880
H       11.09138240      12.60262508      20.93955415      -0.03134061       0.03848896       0.02899996
H       13.25212736      14.40614139      19.74665425      -0.06113254      -0.24433993       0.09836000
H       11.37911287      13.15052015      17.82193241      -0.02190928       0.01631092      -0.03954611
H       12.95805742      13.90628772      17.48917945      -0.02232805      -0.01042713      -0.01755606
H       12.66837980      12.20191248      17.05591454      -0.04474227       0.04784125      -0.10784469
H       13.61943300      10.57632892      23.41803193       0.07065096      -0.06006336       0.10717571
H       15.92982535      11.38685006      23.94384887       0.01063034      -0.00720699       0.02270321
H       16.85644761      13.25033030      22.55899862      -0.00614172       0.02779705       0.00144813
H       15.22528108      12.47484342      18.89710614       0.14181184       0.25724964      -0.20107944
H       15.74153160      13.36222775      17.45237575      -0.07324436      -0.06910789       0.19445074
H       18.13276508      13.16590307      18.22143971       0.04812300      -0.04077195      -0.00213449
H       17.58988371      12.23127749      19.61962942       0.01280714      -0.01062542      -0.00286161
H       17.37905363      11.58015932      17.98978109       0.06795882      -0.09801225      -0.02843448
H       15.60517894      15.50017637      23.08192907       0.06401156       0.12935543       0.02153595
H       16.69967035      16.84206602      22.70848994      -0.04463151      -0.14219253       0.11980148
H       14.07158252      16.62681754      24.51510831      -0.01300223      -0.06770154       0.06819561
H       15.24178324      17.95043137      24.51023303       0.02734362       0.00866623       0.09361322
H       13.53972249      18.27012819      24.16310513      -0.05300268       0.05671190       0.05923794
H       12.50740617      17.42564496      22.02815226      -0.13029607       0.05478075       0.05103896
H       13.50000136      16.62657372      20.81453961      -0.01472545      -0.05686613      -0.10876941
H       13.11015641      15.79492389      22.31698640      -0.05491368      -0.16643785       0.04955420
H       14.12259876      19.39032073      22.05430394       0.11762826      -0.16526730      -0.01774733
H       15.03578832      18.55042084      20.79044925      -0.01824215       0.07616046       0.21805671
H       18.50375241      20.00138186      22.58805598      -0.11238981       0.13023007       0.01222202
H       17.65173814      22.72129837      21.92911121       0.22597558      -0.17295225      -0.03030969
H       19.79189222      22.99327920      19.94561737       0.22473893      -0.28125993       0.08673999
H       22.57382290      22.06853936      19.81038619      -0.06383622       0.21551538      -0.20013846
H       23.63188107      22.70518673      18.06715202      -0.10377965       0.34008604      -0.01129108
H       23.74606541      25.72912561      18.43571431       0.03641021      -0.11866525      -0.00809097
H       26.19510956      25.37102591      17.95154223       0.07201915       0.03560852      -0.02111214
H       25.85111760      23.68928119      17.54190457       0.02894913      -0.02546345       0.00070567
H       25.20450288      24.98683088      16.54305530       0.03303394       0.00615823      -0.08475913
H       25.04711342      23.43237811      19.96257151       0.05491781      -0.08666646       0.02389193
H       25.29526603      25.15189208      20.26122785       0.06111147       0.00552222       0.05762734
H       23.71422964      24.42820123      20.55438882       0.07450899      -0.02458775       0.07749643
H       20.50977232      23.85030897      14.66057113       0.02951776      -0.02219773      -0.04366259
H       20.67773058      23.04972414      13.09043440       0.05539427       0.01795948       0.06650947
H       18.95050800      21.92654076      14.46412008       0.29223319      -0.01414298       0.17001315
H       20.09301661      21.75920964      15.80213435      -0.09738763      -0.00363691      -0.29110811
H       19.95805091      15.97646486      15.57606602      -0.01626841      -0.11335936       0.07434701
H       19.18971671      14.40526877      15.81406551       0.06860242       0.03092721       0.05950111
H       20.95375607      14.50278506      15.66995848      -0.04655168       0.04687245      -0.02540210
H       19.22921184      12.81014897      14.08608881       0.03753052      -0.04841604      -0.04260171
H       19.67919247      13.25994965      12.44490334       0.02006986      -0.09870947      -0.01372569
H       20.94258720      12.96335874      13.66661736      -0.06630411      -0.00258009      -0.02440173
H       20.76837661      14.71704639      11.15573000       0.00546534      -0.08408876      -0.05985788
H       19.19069210      15.47504248      11.46021559      -0.01633214      -0.00402901      -0.01287710
H       20.59290056      16.46688527      11.05490940       0.04418816      -0.01495365      -0.04876548
H       22.41310499      15.85134547      14.29774780       0.01151937      -0.01623215      -0.02551882
H       22.46104536      14.59387500      13.05017812       0.04740128      -0.05126125      -0.02297890
H       22.64063337      16.29248256      12.60421086       0.05238223       0.01302523       0.00392208
H       22.12441957      19.93591858      15.19395970      -0.04853316      -0.01936090      -0.31480318
H       21.99313822      19.32932179      13.52777368      -0.00224905       0.17141177       0.13983231
H       22.53834226      21.51864664      12.62358330      -0.04203716       0.05025827       0.02317146
H       23.72525609      21.11876980      13.87392167      -0.06571906       0.03499287      -0.02072404
H       21.33999705      25.29960612      16.54440847       0.18457336       0.07269435      -0.07513288
H       23.00700697      25.87350741      16.47066352      -0.03495097       0.00165054      -0.06769070
H       22.28607593      25.16582218      15.03548599       0.09745105      -0.05477915       0.11167337
H       21.01256614      20.20402849      20.31905509       0.03605039      -0.06572257       0.05145439
H       19.27643663      20.58195808      20.34113620       0.22859938      -0.02127308       0.03394930
H       21.18852851      20.86924725      17.97349223      -0.19219268      -0.08918340       0.13338923
H       20.17705829      18.58600279      18.50480137      -0.00445743       0.05504534      -0.05956366
H       19.71373654      19.24847997      16.91462216       0.01452296       0.00589783       0.19655881
H       17.48124940      20.19236015      16.65660625      -0.02128213       0.04242002       0.21963975
H       16.42734075      20.29365151      18.09676293       0.07858028       0.03005447      -0.03290639
H       17.85810483      21.92537771      19.15696282      -0.00108447       0.00405843      -0.12346013
H       17.57883322      22.49770227      17.48888424       0.00357548      -0.11106894       0.13528066
H       20.47124084      23.09075448      24.26161934      -0.16373930       0.00193583      -0.02303821
H       18.79642056      23.65583743      24.06284362       0.03484722      -0.01133171       0.01527779
H       18.82095392      21.92751196      25.81207439       0.04910492      -0.06277541      -0.00335520
H       19.67318131      20.80603315      24.73894609       0.02326527       0.02522336       0.04747918
H       16.86050189      21.93052894      24.30227494      -0.01824977      -0.05006197      -0.01646498
H       17.26581434      20.25394148      24.70912516      -0.06723793       0.05315708      -0.00965127
H       16.94978271      15.26032236      16.70925109      -0.00822517      -0.03391505      -0.02541215
H       17.90266193      17.50961521      16.44485712      -0.01085480      -0.00311013       0.00122855
H       17.32626582      18.35863873      20.57517405      -0.03000909       0.02281038       0.03057822
