151
Properties=species:S:1:pos:R:3:MACE_forces:R:3 energy:=T -221.329388911246=T gnorm:=T 0.008864020966=T xtb:=T 6.7.1=T (edcfbbe)=T MACE_energy=-90873.23015010395 pbc="F F F"
C       10.73773268      14.13860179      20.16491477       0.30363434      -0.21663762      -0.15337414
N       11.89261270      12.52833237      22.15142590      -0.26276959       0.00399387      -0.15300121
O       12.42884740      12.63697587      19.19889911      -0.09596773       0.01410648       0.16778943
C       12.20801588      13.73340480      20.08421722      -0.06803691       0.19383986      -0.04801327
N       15.49731850      14.09035457      19.96764918      -0.32373014      -0.02285594       0.06928200
O       15.66987063      19.29034675      22.39884596      -0.09007590      -0.44730331       0.38575463
C       12.27623028      12.93946546      17.82972318       0.02803335       0.03749278       0.14153576
N       18.22286816      21.75858589      22.00019972      -0.32337006       0.26562668      -0.06143489
O       18.95149232      19.34774499      13.96052215       0.77965057      -0.07021666      -0.09099936
C       12.71860508      13.28078129      21.43996999       0.33195313       0.17242537      -0.14521669
N       19.39895262      22.12459343      22.66587389      -0.84072008      -0.01688252       0.65075333
O       23.42942422      21.49084014      16.72495524      -0.27872443       0.32144127      -0.28834032
C       12.27068907      12.09588848      23.34155826       0.01784473      -0.10391988       0.16140661
N       21.77798531      22.26260916      19.90730618      -0.05566431      -0.53973772       0.24118846
O       20.91077927      24.08979937      18.91268499       0.41683897      -0.24531940       0.08735429
C       13.50080358      12.39901680      23.90328219       0.01435045       0.02359427      -0.04769175
N       22.97205816      23.67615980      16.97401498       0.11067566       0.32418081       0.42423678
O       19.51287495      21.08325240      18.01354438      -0.02625376      -0.12545234       0.08769595
C       14.37092895      13.18159767      23.16734967      -0.11836837      -0.08375655      -0.11579897
N       21.01316721      20.23897758      14.28871681       0.20698205       0.23057738       0.05042481
O       21.61756803      22.49041021      22.58667357      -0.44493037      -0.24571163      -0.11813265
C       13.99388435      13.63392271      21.90302681      -0.16188255      -0.21029622       0.24514908
N       23.01406502      16.07122304      11.66652883      -0.01402250       0.05066554       0.07141111
O       15.63490537      21.23055437      21.27247110       0.24510143      -0.34891838       0.33529513
C       14.91440250      14.49131815      21.15020045      -0.02700899       0.43247660       0.21775561
N       18.34361633      18.69639516      18.87723314      -0.11632609      -0.22828162      -0.14363882
C       15.51798435      12.74103798      19.45961894       0.13856165      -0.53697991      -0.00331300
C       16.74058069      11.97680868      19.96658948      -0.15474072       0.11922772      -0.08717053
C       15.31936121      15.76513460      21.48092739      -0.11550729      -0.32811762       0.10171792
C       14.95944778      16.52941413      22.71553372      -0.11217257       0.04862418      -0.07380999
C       13.89112197      17.63899520      22.56360277       0.17631220       0.20157931       0.04226512
C       13.46902186      18.09505438      23.96274870       0.11094759      -0.04130428      -0.16088409
C       12.67681988      17.11023607      21.80136851       0.23947536       0.17299429       0.00413636
C       14.44567278      18.84719766      21.79564395      -0.52937702      -0.12123633      -0.34513781
C       16.17238149      20.45410503      22.03023470       0.18172749       0.85557163      -0.59588002
C       17.50842902      20.70470306      22.71446010      -0.16024804      -0.01424980       0.12170162
C       20.57758599      22.16842577      22.02264090       1.15493721       0.17484258      -0.48447918
C       20.54195076      21.84595530      20.52694882      -0.09258222       0.18160201      -0.08354943
C       21.85487565      23.32863378      19.10216378      -0.27226695       0.39444958      -0.27598712
C       23.21342344      23.51151134      18.41166975       0.04666167      -0.03959463       0.19720577
C       24.01750155      24.64747475      19.06552578       0.02246718      -0.12683513      -0.07870065
C       25.37364510      24.80093663      18.38089954      -0.22485099       0.09187086      -0.05958343
C       24.22124809      24.33034555      20.54725612      -0.23682064       0.18158511      -0.08291838
C       23.05206311      22.56130412      16.23693656       0.45864658      -0.93301342      -0.18716710
C       22.65581706      22.58270969      14.74704738      -0.10957894      -0.07279710      -0.45802548
C       21.13763788      22.67058400      14.56841647       0.14163446      -0.07888212       0.10650234
C       20.48523353      21.36814588      15.02111104      -0.40416248       0.24492332       0.16153347
C       20.17811417      19.29363081      13.82681498      -1.36053118       0.24410239       0.19880502
C       20.78480189      18.20429456      13.10651425       0.04012223      -1.09045523      -0.68979381
C       21.11520408      17.25102686      12.44854857      -0.09690470       0.88593423       0.62855821
C       21.54564391      16.11783977      11.63311140      -0.20712233      -0.28158364      -0.09061987
C       23.65145819      17.26506771      11.14775082       0.08379180       0.04417813      -0.00392622
C       23.61375996      14.88802596      11.08661060      -0.02861727       0.00244386       0.00767095
C       20.94841965      14.85773898      12.27984948       0.02054039       0.00692183      -0.06351414
C       20.94422188      16.30904136      10.22472288       0.13368537      -0.03421822       0.06866061
C       22.44675480      20.07328370      14.37109484       0.53677401      -0.24421662       0.05056138
C       23.17934338      21.35887616      13.98782796      -0.04166015      -0.01716359       0.45646356
C       22.46637207      24.96697154      16.55233446      -0.33639231       0.39336177      -0.13978951
C       20.29612037      20.36319394      20.23235717      -0.18709899       0.33345000      -0.31416502
C       20.26975741      20.10625421      18.71390046       0.32134074      -0.23976795      -0.00871673
C       19.71642809      18.70428381      18.42121642       0.18944924       0.26824605      -0.06718670
C       17.55565170      19.62964278      18.08913117       0.02722152       0.37108060      -0.19739880
C       18.12361259      21.03057020      18.29395790      -0.27138457       0.02637072       0.03084521
C       19.27198246      22.51597119      24.06203232       0.19078816      -0.16102356       0.13949494
C       18.59494520      21.39922457      24.85348514      -0.08204052       0.23911002      -0.13998290
C       17.26149187      21.05060180      24.19549950       0.29130094      -0.23758438       0.00006053
C       16.20645277      16.17729320      20.44274304       0.12477730      -0.40970341      -0.31986536
C       16.30412192      15.10045843      19.52492550       0.26429800       0.72035727      -0.03762457
C       17.11919414      15.18692717      18.40204718       0.01807319      -0.19581379      -0.14767922
C       17.80606009      16.36184646      18.17483527       0.09814681       0.09482462      -0.07023419
C       17.70869652      17.43714503      19.06780948      -0.02520951       0.05857110       0.32312227
C       16.93918744      17.33409795      20.20876653       0.06290220      -0.00132799      -0.17961993
F       23.25258683      23.69719334      14.12145606       0.01085089       0.01599367       0.11370070
H       10.14693069      13.27540502      20.45530174      -0.04138471       0.04526109       0.00704903
H       10.61869864      14.91944795      20.90905055      -0.05233010       0.07406270       0.05342640
H       10.39090354      14.51349214      19.20642677      -0.02970392       0.06051643      -0.04639687
H       12.81155652      14.58927605      19.73948008      -0.13571869      -0.24360185       0.09527418
H       12.66257985      12.07696278      17.29098243      -0.04549501       0.09445786      -0.09540892
H       11.22800915      13.09157718      17.56152297       0.04672505       0.01370385      -0.02817613
H       12.85328093      13.83131389      17.55905879      -0.03179833      -0.06067797      -0.01938149
H       11.54543872      11.48489889      23.86052238       0.04550030      -0.03898810       0.13638441
H       13.76710168      12.03297043      24.88144926       0.00608241      -0.03032104       0.05507986
H       15.34668382      13.44034078      23.55152537       0.01985548       0.01927205       0.00678471
H       14.60205755      12.23522500      19.77152763       0.24887760       0.17900951      -0.20136601
H       15.52506524      12.78420192      18.36624686      -0.10188105      -0.02155313       0.18320742
H       16.73564302      11.94317223      21.05542143       0.00388365      -0.02592253      -0.03251658
H       16.72554404      10.95907560      19.58479014       0.05533800      -0.05110744       0.00505357
H       17.65590865      12.46582804      19.64015610       0.04340217      -0.04357995       0.02335392
H       14.58305492      15.82213645      23.45546766       0.06275305       0.10962396       0.05566351
H       15.86451941      16.99209941      23.11302367      -0.07289341      -0.12832183       0.13715699
H       14.32934500      18.46307246      24.51593890       0.01239442       0.02141183       0.08527361
H       12.73301141      18.89286976      23.89681381      -0.05178310       0.06818783       0.02638671
H       13.02794437      17.26888191      24.51484486      -0.00532029      -0.04544939       0.03498169
H       12.28619591      16.22463365      22.29577450      -0.05792837      -0.04584404       0.00479827
H       11.89308274      17.86218307      21.75912184      -0.09734742       0.02475652      -0.00209467
H       12.95232820      16.84217179      20.78420052      -0.05184448      -0.04824089      -0.03049101
H       13.73042401      19.67519516      21.79947910       0.10393709      -0.17316762       0.01592485
H       14.65372593      18.57970988      20.75486842       0.00438408       0.08027883       0.19693081
H       18.10842048      19.78947191      22.65547381      -0.11389388       0.16991182       0.01826811
H       17.60689394      22.56703113      21.89057397       0.22217319      -0.23712256      -0.02924696
H       19.75410541      22.45650368      20.07279438       0.22928978      -0.25955103       0.07938505
H       22.59545862      21.69936152      20.07736384      -0.06809388       0.20602569      -0.11489984
H       23.78932090      22.58594788      18.50821733      -0.17749104       0.26787113       0.00139133
H       23.44701311      25.57659026      18.99138857       0.03908048      -0.08032128      -0.01383387
H       25.26910660      24.99356766      17.31600105       0.04242234       0.00761230      -0.03923198
H       25.92506083      25.62363298      18.82873814       0.06778460       0.01986894       0.00016033
H       25.95471075      23.88902782      18.50283119       0.05707505      -0.05135183      -0.00334553
H       24.77549876      23.40209722      20.66800657       0.05560856      -0.06198796       0.01585165
H       24.78822835      25.12862915      21.01826228       0.05199115      -0.00062518       0.06371050
H       23.27278543      24.23155575      21.07095572       0.07424969      -0.01218158       0.07096718
H       20.71609700      23.48565674      15.15407802       0.05253684       0.00499743      -0.06373222
H       20.92966564      22.85137760      13.51130879       0.06561412       0.01485103       0.08891780
H       19.40722262      21.40213271      14.84685976       0.28490005      -0.01908606       0.17511761
H       20.65047165      21.22919472      16.09492178      -0.11806963      -0.01923107      -0.25142742
H       23.72121732      17.27185828      10.05012284      -0.03444485       0.04077437       0.03984048
H       23.10232870      18.14701954      11.46884338       0.14743110      -0.00859100      -0.06639368
H       24.66299607      17.31808374      11.55194631      -0.03805234       0.05565361      -0.07465822
H       24.68576813      14.93454806      11.27657672      -0.03929800      -0.07208195      -0.04730124
H       23.22443864      13.99315674      11.56174245       0.05115058      -0.04986566      -0.06037632
H       23.46588887      14.81350287       9.99839417       0.00594201      -0.04137154       0.05371751
H       21.51335967      14.59712216      13.17269872      -0.03685989       0.00543768      -0.02249577
H       19.91615511      15.05531073      12.56440159       0.06763777      -0.06454995      -0.05967518
H       20.95952336      14.02527035      11.57927013       0.02541533      -0.04504308       0.04625702
H       21.24727102      15.49004542       9.57747686       0.00587652      -0.03708164      -0.05144564
H       19.85938448      16.32089358      10.29015688      -0.01812535       0.00507176      -0.01022541
H       21.27244238      17.24897374       9.78953225      -0.00326169       0.01403986      -0.04015714
H       22.72074702      19.81435765      15.40064203      -0.04110933       0.02334241      -0.31476925
H       22.75076141      19.26204620      13.70837922       0.01288185       0.20015682       0.19083073
H       23.05108008      21.56762998      12.92368202      -0.03917524       0.04694306       0.11443015
H       24.24245451      21.23259775      14.19455266      -0.09424083       0.05055850      -0.03846442
H       22.28962078      25.00233728      15.48582929       0.09616838      -0.05863353       0.12688369
H       21.53764006      25.17344563      17.08751586       0.17413321       0.03308137      -0.07013120
H       23.19437818      25.73775612      16.79786873      -0.04223387       0.00382397      -0.06498470
H       21.08802663      19.76024466      20.67600036      -0.01395800      -0.05903381       0.07577064
H       19.33782205      20.06212665      20.64749214       0.20046884      -0.00493682       0.10272964
H       21.27883882      20.20640650      18.29639386      -0.19514759      -0.11337255       0.13089622
H       20.28260161      17.95314302      18.97423678      -0.01170414       0.04782316      -0.06814394
H       19.80493305      18.50304588      17.33958517       0.03464677      -0.00763768       0.18185819
H       17.57806008      19.36943075      17.01497735      -0.04048868       0.06968550       0.17449859
H       16.52021789      19.60715452      18.43358182       0.10884497       0.01175430      -0.05123247
H       17.92465141      21.35187856      19.32378078       0.01155793      -0.02328089      -0.16064439
H       17.66577129      21.74026824      17.60261612       0.00526165      -0.11656000       0.14855002
H       20.27617315      22.72186834      24.43180778      -0.21848667       0.01058827      -0.07550839
H       18.67378472      23.43238936      24.11529066       0.04613219      -0.03949469       0.01781488
H       18.43653649      21.72626626      25.88047509       0.03682410      -0.05113343       0.00307595
H       19.24196029      20.52055620      24.86386132      -0.00606726       0.06291930       0.05061282
H       16.58014348      21.90332599      24.25647800      -0.00742497      -0.06279361      -0.03282299
H       16.79752647      20.19936940      24.69112578      -0.06897175       0.05644767      -0.01198090
H       17.20956609      14.36474140      17.70785151      -0.00432207      -0.03255152      -0.01160300
H       18.42446390      16.45414279      17.29413484       0.00566469       0.02476072      -0.02627262
H       16.93063456      18.15953014      20.89756607       0.03107511       0.01022529      -0.04110342
