151
Properties=species:S:1:pos:R:3:MACE_forces:R:3 energy:=T -221.329968966610=T gnorm:=T 0.009177918086=T xtb:=T 6.7.1=T (edcfbbe)=T MACE_energy=-90873.21821331227 pbc="F F F"
C       10.37457851      14.54745748      21.43640577       0.21469618      -0.21245441      -0.27951867
N       11.83959081      12.44486224      22.58482624      -0.30835971       0.07717116      -0.05277917
O       11.36260205      13.04392595      19.75530891      -0.04982352       0.05644171       0.29063875
C       11.64323961      14.00658810      20.77473007      -0.04379643       0.18871506      -0.07354962
N       14.75850747      14.31812598      19.72633884      -0.27312457       0.07125783       0.12512364
O       15.81181076      18.96865421      22.85958357       0.14973033      -0.54595132       0.22678720
C       10.73896693      13.56663670      18.60438882      -0.00321611       0.06008942       0.03158316
N       17.71448289      21.87449287      22.31865502      -0.42542416       0.16602322      -0.09482974
O       20.50475272      17.61801570      13.81055135       0.72191647       0.32021121      -0.06343254
C       12.49912308      13.28158251      21.79671340       0.31769860       0.15190700      -0.20477805
N       18.88782561      22.44500314      22.81676976      -0.66688406       0.04566385       0.72955419
O       23.28355458      21.52629166      16.96580503      -0.13222664       0.10358292      -0.31082451
C       12.49256294      11.76701764      23.51037021       0.15311392      -0.09989521       0.07054337
N       21.02608808      22.45440161      19.87722076       0.08704941      -0.52833988       0.50884940
O       19.99122319      24.12490122      18.77767206       0.35196836      -0.17618232       0.12529941
C       13.86050841      11.88007428      23.70427621       0.00156112       0.05780568      -0.06789934
N       22.06372312      23.41433320      16.81739620      -0.01737196       0.21232608       0.31095742
O       19.60458939      20.86863835      18.01199137      -0.09283851      -0.09126551      -0.04141741
C       14.55918690      12.74733664      22.88559209      -0.16020435      -0.03482022      -0.05105886
N       22.06702284      19.02220253      14.66322942       0.16839521       0.15777855       0.20704912
O       21.05299639      22.95725108      22.48406522      -0.44673560      -0.34472695      -0.03012945
C       13.88441944      13.47604731      21.90464071      -0.12447394      -0.29581073       0.23513352
N       24.34565760      17.42872137       9.95744345      -0.03134481       0.05590711       0.01606525
O       15.05217178      20.98945928      22.24338274       0.49064875      -0.30483577       0.20611706
C       14.64493478      14.43285025      21.09484600       0.10164085       0.32023212       0.20619304
N       17.86880638      18.78787975      18.73790993      -0.13799640      -0.06337007      -0.09014024
C       14.44653709      13.13934692      18.95411984       0.07442903      -0.54801205      -0.06436450
C       15.59423662      12.13140850      19.00570055      -0.15162342       0.17293480      -0.08636657
C       15.33352566      15.54037083      21.53991447      -0.14126714      -0.32011465       0.12249681
C       15.46934574      16.02350501      22.94869671      -0.18949155       0.04193805      -0.03258218
C       14.41492869      17.06055926      23.39637930       0.14186203       0.23463137       0.05217901
C       14.62860395      17.36777031      24.88107162       0.04904992       0.03502721      -0.22707331
C       13.00154063      16.52013174      23.18808915       0.24776828       0.13276867      -0.06146696
C       14.55047829      18.34940968      22.57655416      -0.63518277      -0.17065608      -0.04023239
C       15.92529463      20.26861387      22.67640678      -0.23188830       0.91353649      -0.47826233
C       17.27591741      20.76356827      23.15588613      -0.21087758      -0.03504927       0.21356101
C       19.99384176      22.50818747      22.06052660       1.01716749       0.33376076      -0.55336760
C       19.84631321      22.05029463      20.60646392      -0.00021221       0.15872576      -0.21639293
C       20.99780498      23.45500397      18.99275564      -0.16223583       0.31052654      -0.35232751
C       22.31189326      23.67718952      18.23555280      -0.00535673       0.10485845       0.19354903
C       22.88843925      25.07551509      18.51046814       0.04150511      -0.15823970       0.06757389
C       24.24610224      25.22900477      17.83087929      -0.25715344      -0.01610305      -0.08168877
C       23.02331000      25.27355542      20.02005026      -0.21880870       0.05242520      -0.16592493
C       22.58873554      22.29687796      16.29924517       0.53557984      -0.56075273      -0.04052964
C       22.25277178      21.89851986      14.85268344      -0.12177878      -0.27238351      -0.32045661
C       20.91327371      21.14668832      14.86304574       0.11500758       0.06329376       0.06675383
C       21.10943986      19.75200412      15.45574880      -0.62635873      -0.04764926       0.23018180
C       21.66033798      18.05288377      13.82632133      -1.23331354      -0.41867889       0.26051834
C       22.66226159      17.53142687      12.93311253       0.33838632      -0.63387849      -0.95247969
C       23.33605678      17.04645794      12.06118754      -0.27057477       0.49390854       0.80853237
C       24.27639896      16.49276564      11.08953165       0.20232630      -0.19613850      -0.02580114
C       23.06023593      17.72295515       9.35529760      -0.11813346       0.02913722      -0.00587990
C       25.31243561      17.08108450       8.93555203      -0.01085225       0.01008782       0.04703590
C       25.64015907      16.42153622      11.79915218      -0.08626172      -0.07492917      -0.06309885
C       23.80732227      15.07140231      10.71960018       0.03083140       0.09980694      -0.08003269
C       23.38731437      19.60409604      14.68524222       0.50016390       0.11725600      -0.02662273
C       23.34711499      21.05147283      14.18749727      -0.01815579       0.02490290       0.38415672
C       21.21141094      24.35939669      16.12224198      -0.35009663       0.37907675      -0.30446261
C       19.60247682      20.53898883      20.47483037      -0.13681268       0.18275407      -0.42903042
C       19.95414666      19.99469649      19.07505374       0.20830925      -0.30360947       0.28421695
C       19.30247950      18.61585941      18.88160367       0.37731667       0.21707801      -0.16241691
C       17.58025831      19.59291895      17.56815631       0.19141561       0.30296827      -0.06485106
C       18.20898335      20.96614037      17.79513290      -0.19745860      -0.07535207      -0.17043284
C       18.87629672      22.89571988      24.20092262       0.20225057      -0.11050804       0.13136974
C       18.46170442      21.74461867      25.11623137      -0.13557418       0.21964338      -0.12210196
C       17.13034324      21.17165860      24.63549661       0.35162748      -0.13863559      -0.03833400
C       15.91418700      16.14365614      20.38430099       0.06600932      -0.33881005      -0.42565476
C       15.53831625      15.34685207      19.27419096       0.30830830       0.63071196      -0.00473263
C       15.93641241      15.67708391      17.98392713      -0.07714296      -0.12716129      -0.11796846
C       16.70331450      16.80752213      17.80780389       0.15496955       0.10206522      -0.06383956
C       17.09667456      17.60157050      18.89713999      -0.04147996       0.04463591       0.19495847
C       16.71535325      17.26701979      20.18270502       0.01430692      -0.04809538      -0.17361563
F       22.12861975      23.03387877      14.03244220       0.02814554      -0.01493585       0.13572595
H        9.79229192      15.13653897      20.73463258      -0.03230909       0.07453236      -0.02521761
H        9.78268958      13.71039178      21.79263808      -0.04491109       0.04111269       0.02491562
H       10.64531144      15.17531606      22.27917180      -0.01581939       0.05406648       0.05204904
H       12.21647991      14.83590319      20.32622125      -0.12771049      -0.25682875       0.14534277
H        9.73384791      13.95159300      18.82221875       0.20486018      -0.07247289      -0.09597131
H       11.34713153      14.36735293      18.15736262      -0.13760835      -0.12412157       0.03682413
H       10.66133161      12.73036307      17.90829769      -0.04000652       0.21459141      -0.01302152
H       11.88760665      11.11149558      24.11689900       0.02393369      -0.12211263       0.13763058
H       14.35911534      11.30795395      24.46832684       0.03885603      -0.05841270       0.06985120
H       15.62825036      12.86227551      22.98740867       0.01907150       0.03144170      -0.00253060
H       13.53143303      12.68501549      19.34126229       0.21618745       0.20570517      -0.21092761
H       14.26971091      13.45097478      17.92271556      -0.11610057      -0.04833376       0.15603284
H       15.75933413      11.79934232      20.02779755       0.00531167      -0.02445478       0.02808296
H       15.35447091      11.26759694      18.39293422       0.03153727      -0.09809419      -0.03240351
H       16.51097100      12.58494860      18.63479947       0.04185701      -0.03689339      -0.00099536
H       15.39822028      15.17234671      23.62752919       0.09201778       0.10865847       0.04675701
H       16.45588371      16.47514225      23.06378533      -0.00191425      -0.10607015       0.12104148
H       14.47292534      16.47084311      25.47614667      -0.00702445      -0.02826076       0.02679216
H       15.64036125      17.72793497      25.05219700       0.00306745      -0.00182041       0.08049774
H       13.92700996      18.13085539      25.21457869      -0.00843207       0.02389393       0.06122774
H       12.26807278      17.19986225      23.61371504      -0.08633940       0.03807244       0.01376059
H       12.79342104      16.40515179      22.12867442      -0.10410904      -0.06548447      -0.05517204
H       12.89592132      15.55134924      23.66916260      -0.04912309      -0.04505092       0.00730202
H       13.75413897      19.05923251      22.82023366       0.13959258      -0.17278809      -0.01553195
H       14.50649210      18.13301046      21.50563709       0.00695521       0.08773298       0.18636966
H       18.01107655      19.95785110      23.06920929      -0.11826517       0.14794141       0.01245424
H       16.96725065      22.56845624      22.26327147       0.24655702      -0.14770210       0.02047314
H       19.01479720      22.60838895      20.16283709       0.24611946      -0.23165935       0.09941887
H       21.89562591      21.99814433      20.11292890      -0.16165791       0.29771503      -0.19650784
H       23.04266391      22.92755221      18.55293705      -0.19065208       0.21751815      -0.05830487
H       22.19639575      25.82807893      18.12366762       0.02924032      -0.09982555       0.04088107
H       24.65084998      26.21758652      18.02847434       0.07621888       0.05092789      -0.01802529
H       24.94263154      24.48652969      18.21478255       0.07149331      -0.03907547       0.01040217
H       24.16437855      25.09464458      16.75451710       0.05521574       0.01502314      -0.03670809
H       22.05969111      25.17391488      20.51570934       0.05489076       0.03994847       0.07456612
H       23.69926539      24.53555039      20.44694464       0.05365814      -0.02150876       0.02602405
H       23.41511841      26.26455543      20.22962630       0.04898024       0.03779967       0.07704114
H       20.17724046      21.68414011      15.46032960       0.04287507       0.02521007      -0.08009091
H       20.55086975      21.06574822      13.83500079       0.05496307       0.03899140       0.10697148
H       20.16527496      19.20267491      15.45866010       0.27998463       0.13746422       0.03404100
H       21.48270449      19.83926112      16.47984969      -0.11445780      -0.07200708      -0.20788693
H       23.18000875      18.58453755       8.70031828      -0.05787423      -0.02327657       0.00025734
H       22.66078259      16.89176272       8.75447387       0.00864280       0.05378057       0.04871190
H       22.33802764      17.97174879      10.13036238       0.00908632       0.01934798      -0.18497283
H       25.03359541      16.18547951       8.36063583       0.05829841       0.02256463       0.02460624
H       25.37788334      17.91921028       8.24207304       0.05211671      -0.08346825      -0.00752785
H       26.29139251      16.93194116       9.38005105       0.03995869      -0.02935125      -0.09832005
H       25.50872342      15.99959342      12.79219652       0.03150180      -0.03662902      -0.02814622
H       26.33003665      15.78963758      11.24802806       0.07123336      -0.01359918      -0.03443367
H       26.05585641      17.42062787      11.89214403       0.00931930       0.02775067       0.00883669
H       22.82474245      15.09653368      10.25350365       0.02035323      -0.02903634       0.00605577
H       24.51706092      14.61170186      10.03520043      -0.00752658      -0.03206123      -0.01052280
H       23.74273729      14.46280504      11.61817395       0.01193251      -0.02533162       0.00526522
H       23.75038676      19.59319978      15.71655346      -0.03611331      -0.06397033      -0.25868587
H       24.05228363      19.01729677      14.05176050      -0.06454073       0.14819754       0.19828370
H       23.14095376      21.06309824      13.11434415      -0.03277035       0.03410771       0.13520872
H       24.31644913      21.51903323      14.36141357      -0.06047440       0.00808672      -0.05825113
H       20.59313956      24.86150420      16.86188553       0.11868080      -0.05606241      -0.07646616
H       21.80792823      25.09109651      15.57624150      -0.08655853      -0.04634027      -0.02908399
H       20.54608978      23.85896874      15.42448946       0.11605313       0.09383888       0.09347426
H       20.21356471      20.00123546      21.19971514      -0.02998739      -0.08297692       0.04339516
H       18.55128838      20.33887459      20.67323114       0.21334662      -0.03226727       0.11321769
H       21.04097057      19.89813278      18.97843950      -0.22137673      -0.05748853       0.05938426
H       19.50048351      17.98578364      19.74895875       0.03669949       0.04196622      -0.07236090
H       19.73972874      18.13532827      17.98756907      -0.05811296       0.01799544       0.19386346
H       17.99173398      19.15986006      16.63840690      -0.11787557       0.06909418       0.14171974
H       16.49992740      19.69717795      17.46464916       0.07674593      -0.01267427      -0.03678415
H       17.72111250      21.45359677      18.64575342       0.01500593       0.00171145      -0.07385115
H       18.09772662      21.59569876      16.91207251      -0.07133275      -0.02114808       0.12215727
H       19.88062132      23.25226873      24.43147078      -0.24783995      -0.02170364      -0.05581672
H       18.16741936      23.72638137      24.29082683       0.06811813      -0.05213548       0.01726335
H       18.37178525      22.10868650      26.13800986       0.04582286      -0.03430997       0.03633026
H       19.22687291      20.96731055      25.08959254       0.00479901       0.06744057       0.05251470
H       16.34316813      21.92615563      24.71774299       0.01139205      -0.09647897      -0.02677830
H       16.84206332      20.30505872      25.23043943      -0.04481959       0.03384236      -0.03162564
H       15.65749822      15.07227563      17.13397460      -0.00409577      -0.01942742      -0.01471069
H       17.01849969      17.07967978      16.81126974      -0.00491279       0.01350455       0.00055441
H       17.03343875      17.88704941      21.00604653      -0.01314229       0.05491069      -0.02017212
