151
Properties=species:S:1:pos:R:3:MACE_forces:R:3 energy:=T -221.330103696574=T gnorm:=T 0.003803011626=T xtb:=T 6.7.1=T (edcfbbe)=T MACE_energy=-90873.21392727637 pbc="F F F"
C       10.64791719      14.09735562      21.08359557       0.23604004      -0.12271383      -0.29689171
N       12.23138710      12.16742048      22.41219582      -0.31422453      -0.00403121      -0.10671060
O       11.93677307      12.68676000      19.53286298      -0.06786329       0.00716507       0.17880503
C       12.01976322      13.68077499      20.55310427      -0.06028745       0.17549664      -0.02183011
N       15.22755738      14.20472287      19.74120412      -0.27707362       0.00585388       0.00739871
O       15.64759113      19.13980285      22.64986157       0.09985411      -0.54511150       0.43196090
C       11.39011986      13.13153983      18.31167336       0.09763273       0.00575501       0.12859025
N       17.73862670      21.93417005      21.88605287      -0.40303390       0.16781563      -0.15021911
O       19.62780361      19.52924158      12.67237781       0.77263480      -0.13967027       0.26891123
C       12.85370764      13.06355755      21.65971600       0.31154663       0.19402649      -0.20977940
N       18.84881604      22.54094775      22.48185908      -0.81942367       0.05811361       0.65218503
O       22.92390707      21.37152828      17.17474302      -0.07077302       0.21384219      -0.33600311
C       12.88736054      11.57256314      23.39149728       0.11377318      -0.11367538       0.17881643
N       21.37373451      22.50043598      19.84720924      -0.13777225      -0.65324724       0.46118281
O       20.71011527      24.32041458      18.68993027       0.28231598      -0.13332887       0.11178503
C       14.21325252      11.84566207      23.69143703      -0.03427086       0.03210149      -0.03518015
N       22.95441953      23.61196371      17.04114319       0.15442659       0.26921142       0.33547755
O       19.21033333      21.23735358      17.84099718      -0.00146735      -0.07762740       0.12910918
C       14.87056759      12.78055951      22.91378204      -0.12497334      -0.08885715      -0.05950035
N       21.26530430      19.96096100      14.18179673       0.13128366       0.11423616       0.24504459
O       21.02273103      23.09353861      22.39573486      -0.43962375      -0.28230722      -0.11161338
C       14.19695678      13.40830260      21.86577782      -0.10580976      -0.27879563       0.25220612
N       23.90825362      16.29742862      11.04666189       0.03056056       0.05982709       0.01062743
O       15.24859863      20.89701863      21.31607926       0.37875324      -0.22083781       0.39516007
C       14.92146263      14.40560303      21.07012442       0.05266221       0.36248592       0.31836178
N       17.94924181      18.92171005      18.78410434      -0.12233014      -0.21017021      -0.17567202
C       15.05758076      12.97185966      19.01214789       0.14500685      -0.45970847      -0.08564404
C       16.30733279      12.09840085      19.10263247      -0.15212403       0.13670053      -0.06091588
C       15.43243227      15.60941374      21.50153458      -0.11171503      -0.33265030       0.08883937
C       15.34240912      16.20805332      22.86830673      -0.15949809       0.03561766      -0.07988144
C       14.20636774      17.23597906      23.07741280       0.14925566       0.25380983       0.04843422
C       14.16948475      17.62685289      24.55714466       0.05457827      -0.03758229      -0.20631048
C       12.86331338      16.63357701      22.66991776       0.21171713       0.17408578      -0.03872845
C       14.43543111      18.49598315      22.23371826      -0.49763013      -0.16294401      -0.26226256
C       15.93446552      20.31756146      22.12852896      -0.06642478       0.84601739      -0.73983477
C       17.20628951      20.87774921      22.74016020      -0.20137856      -0.01426674       0.14251026
C       20.03120838      22.61830887      21.85174910       1.02687679       0.29318326      -0.40214320
C       20.07805765      22.16334226      20.39012471       0.04579141       0.13248922      -0.11868080
C       21.58626576      23.53285973      19.03114356      -0.06026371       0.35413557      -0.36759120
C       23.02376859      23.62998684      18.50485670      -0.10301765      -0.02660264       0.27850915
C       23.76350035      24.83549106      19.10118016       0.06593135      -0.12208200       0.01179867
C       25.24479031      24.78191108      18.72892042      -0.31561910       0.08188209      -0.11769462
C       23.60469314      24.81939763      20.62196094      -0.21427043       0.12363313      -0.19460311
C       22.90117350      22.39492265      16.48591622       0.24580303      -0.70451610      -0.04337514
C       22.85069022      22.25084097      14.95583886      -0.02975113      -0.09024142      -0.41707632
C       21.42128224      22.38706871      14.41528467       0.08889750      -0.10365837       0.11303078
C       20.60098540      21.13007140      14.70736281      -0.43396018       0.27524325       0.04614433
C       20.73115711      19.26914831      13.16275609      -1.35755566       0.38967664      -0.34202309
C       21.49751530      18.15493365      12.66653619       0.33009386      -0.84995684      -0.72080591
C       21.98650670      17.20781454      12.10591210      -0.18990362       0.70236232       0.58566981
C       22.54439852      15.99870529      11.50181235      -0.13370978      -0.26645533      -0.00017126
C       23.96944646      17.35726720      10.05892868       0.03193597       0.05508217      -0.07014066
C       24.67764877      15.15112497      10.60797859      -0.06247211      -0.00771266       0.04454215
C       22.56991605      14.93063317      12.60813977      -0.00056758       0.01663981      -0.12773587
C       21.57483657      15.56038336      10.38467347       0.12866819       0.03973677       0.00865856
C       22.57336447      19.72703792      14.74076867       0.39857202      -0.18530015       0.18423790
C       23.47839558      20.93222721      14.48462673      -0.11373803       0.03401763       0.34191717
C       22.67266581      24.87721155      16.39452772      -0.19806621       0.38996307      -0.17653522
C       19.81966711      20.67254728      20.16819771      -0.18698949       0.24050232      -0.44272137
C       19.90557834      20.31495874      18.67192017       0.34627729      -0.32105606       0.04638949
C       19.35850025      18.89897730      18.44758857       0.23219575       0.28366661      -0.06410726
C       17.23431982      19.80685208      17.88225373       0.02959537       0.40549370      -0.11979865
C       17.80602650      21.21416741      18.03876419      -0.27100490      -0.05050145      -0.10136046
C       18.65795167      23.09257275      23.81557671       0.26234118      -0.06725829       0.17104386
C       18.14101238      22.00953432      24.75932954      -0.18277093       0.21928897      -0.16434592
C       16.88561776      21.37612049      24.16329345       0.33959118      -0.21223330       0.01826808
C       16.09926427      16.18219143      20.37924538       0.09454824      -0.29106920      -0.36308239
C       15.95833028      15.27172800      19.30257590       0.20340274       0.61878831       0.11674709
C       16.51332416      15.54009551      18.05514378      -0.02082703      -0.14730365      -0.19803036
C       17.17991641      16.73335160      17.88471172       0.09635257       0.08567284      -0.08161423
C       17.32102436      17.64645974      18.94030239       0.03418256       0.18704065       0.29759943
C       16.80943178      17.36496526      20.18796018      -0.01044437      -0.10139169      -0.17414077
F       23.64124177      23.26177200      14.37315532      -0.00286570       0.02564870       0.06347753
H       10.77492359      14.75825775      21.93469548      -0.05140497       0.06326970       0.05101009
H       10.08227256      14.62079141      20.31823035      -0.03497808       0.05526191      -0.00590836
H       10.10700565      13.21104076      21.39816437      -0.02886650       0.00277073       0.04279958
H       12.54518521      14.56009401      20.14474296      -0.09189897      -0.23742935       0.12058364
H       10.33075674      13.38140754      18.40572671       0.03555393       0.00044793      -0.04715997
H       11.93558034      14.00474803      17.93379596      -0.05568336      -0.04558705      -0.01580561
H       11.50362050      12.30042150      17.61886241      -0.05770836       0.12078506      -0.05921448
H       12.31732874      10.84954885      23.95854066       0.06564695      -0.05202480       0.09542421
H       14.71062588      11.33987444      24.50286552       0.02296340      -0.01935155       0.03940769
H       15.90725053      13.02309402      23.09688633       0.01743305       0.03297239      -0.00352994
H       14.19635234      12.43711292      19.41688017       0.16621887       0.21405849      -0.19428852
H       14.84884300      13.21842528      17.96793998      -0.09637811      -0.03826441       0.16486690
H       17.17601622      12.64312133      18.74003013       0.05436638      -0.03548467      -0.00622287
H       16.48769537      11.80335639      20.13374306       0.01165488      -0.01099172       0.02371478
H       16.17601795      11.20368510      18.50177773       0.04562053      -0.10767309      -0.02888052
H       15.19322430      15.40750861      23.59478636       0.07166175       0.10532389       0.04329540
H       16.28912260      16.70319837      23.09140376      -0.01249277      -0.11125003       0.12910200
H       13.38369388      18.35646057      24.73772817      -0.05542807       0.06334675       0.05825069
H       13.97540135      16.75246621      25.17273105      -0.02630967      -0.05064948       0.06457368
H       15.12023794      18.05927870      24.85704721       0.01822128       0.00337561       0.08347899
H       12.69822275      15.70266086      23.20620966      -0.04300879      -0.06200337       0.01547056
H       12.05043232      17.31773104      22.89973377      -0.08603659       0.03254977       0.03284241
H       12.84778145      16.42562136      21.60372112      -0.04660423      -0.05694290      -0.05186679
H       13.60850820      19.20276855      22.35951243       0.13625818      -0.15399626      -0.01108645
H       14.51551659      18.25181118      21.17035802      -0.03206705       0.06900575       0.20015805
H       17.95481760      20.08031621      22.79862015      -0.12583378       0.11946717      -0.01844052
H       17.00442880      22.62104238      21.70337055       0.25913032      -0.15155002       0.01681335
H       19.34813451      22.76165627      19.83328904       0.18288120      -0.24591513       0.13740392
H       22.14745056      21.92106375      20.13492167      -0.10772548       0.24546462      -0.21635496
H       23.56254286      22.72043965      18.78914211      -0.10458609       0.25958138      -0.00988890
H       23.31634324      25.75823932      18.72498344       0.02298559      -0.12388038       0.01586589
H       25.75086715      25.67415967      19.08603322       0.09109171       0.03414937       0.00380464
H       25.71137347      23.91371891      19.18910398       0.04818305      -0.05292426       0.01667691
H       25.38108969      24.71073538      17.65288485       0.07624849       0.00158751      -0.06982847
H       23.97327195      23.88614522      21.04170158       0.04756904      -0.05758530       0.05325931
H       24.16557095      25.63962352      21.06009542       0.05922891       0.04233190       0.06267622
H       22.56087906      24.92536540      20.91114452       0.07314481      -0.01680870       0.08300170
H       20.91403405      23.24291227      14.85931891       0.05976377      -0.00202073      -0.05081877
H       21.48961950      22.53889005      13.33510904       0.02159423       0.00054059       0.12080549
H       19.62334772      21.20596933      14.22678366       0.22530115      -0.03197919       0.19216211
H       20.45967438      21.01875690      15.78751188      -0.01111499      -0.00939089      -0.20334730
H       23.66534135      17.02829219       9.05325023       0.00464481       0.05140336       0.07975047
H       23.32962505      18.18242624      10.36703837       0.08303747      -0.00209099      -0.08058180
H       24.99747744      17.71483807      10.00207453      -0.06347161       0.03346516      -0.05740377
H       24.26563115      14.66478662       9.71059262       0.04284229       0.00820953       0.04764936
H       25.68227912      15.49787533      10.36968678      -0.01980840      -0.07971267      -0.00501236
H       24.75356977      14.41957666      11.40712008       0.03917171      -0.05834800      -0.05908030
H       22.69125299      13.94049804      12.17901517       0.04234573      -0.07218375       0.01154833
H       23.38255610      15.13325966      13.29908854       0.02713286       0.00752001       0.03901543
H       21.63097855      14.95610503      13.15419138       0.00247321      -0.06211645      -0.01375479
H       20.60184456      15.34071849      10.81594182      -0.03242504      -0.02162354      -0.03189505
H       21.44908543      16.35133354       9.64900495      -0.00855311      -0.04089675      -0.00184170
H       21.94845442      14.66771206       9.88925363       0.00623854      -0.04883788      -0.02244298
H       22.47223834      19.58235526      15.82019224       0.04466520      -0.07109133      -0.27153707
H       23.00671374      18.83491715      14.28801257      -0.07522976       0.14942539       0.11235642
H       23.66335760      21.03388964      13.41316044      -0.06239627       0.02998995       0.10498989
H       24.43185913      20.78612048      14.99153949      -0.02856791       0.03544517      -0.05372295
H       22.38534765      24.74470463      15.35921915       0.10232162       0.00494491       0.14287922
H       21.84790556      25.35506432      16.92747493       0.16079309      -0.03652188      -0.07810616
H       23.55422032      25.51736217      16.42594666      -0.08549523      -0.00952072      -0.07374013
H       20.56522890      20.08580404      20.70429181       0.01631126      -0.06215009       0.05615539
H       18.82742598      20.41138086      20.52733405       0.25082691       0.01265668       0.04622727
H       20.94274095      20.38300343      18.32409977      -0.21676165      -0.08311417       0.13067596
H       19.86935979      18.19017351      19.10022109       0.00673312       0.03906481      -0.07265067
H       19.53653744      18.60834636      17.39622582       0.00995475       0.01417980       0.18050267
H       17.32500922      19.48689109      16.82801912      -0.03299847       0.03611360       0.15908078
H       16.17851529      19.81458503      18.16061552       0.09987484       0.01347853      -0.07839604
H       17.54925023      21.59325110      19.03478891       0.00955614      -0.03771267      -0.11092674
H       17.39721049      21.88538463      17.28154750      -0.02867703      -0.08564213       0.15723683
H       19.61970191      23.48661018      24.14292995      -0.22041301      -0.02557296      -0.06665052
H       17.93504493      23.91332326      23.74854312       0.06230501      -0.04438142       0.02734088
H       17.91773185      22.45210197      25.72912737       0.04962742      -0.04893875       0.02589812
H       18.91104684      21.24883179      24.89345410       0.01539261       0.03581256       0.03688097
H       16.08336970      22.11599847      24.10999151      -0.01319724      -0.05915807      -0.02062441
H       16.54717837      20.54003562      24.77294113      -0.06483683       0.04676476      -0.01256272
H       16.42281671      14.84444879      17.23477347      -0.01503646      -0.03594663      -0.02274862
H       17.60608435      16.97494839      16.92137129      -0.00844912      -0.00717999      -0.01716895
H       16.96620251      18.06589425      20.98989690      -0.01213057       0.04023527      -0.01083065
