151
Properties=species:S:1:pos:R:3:MACE_forces:R:3 energy:=T -221.331712856415=T gnorm:=T 0.008207813709=T xtb:=T 6.7.1=T (edcfbbe)=T MACE_energy=-90873.27992137043 pbc="F F F"
C       11.18053804      14.04524458      20.98113144       0.23686027      -0.11251166      -0.38170382
N       12.86078137      12.04280370      21.97793488      -0.31818656       0.01835342      -0.07811085
O       12.44479437      13.01646361      19.14432717      -0.04945601      -0.04797683       0.14793891
C       12.54440768      13.78709301      20.34002714      -0.11660026       0.22397801       0.02984268
N       15.69765001      14.23523541      19.28186903      -0.32166058       0.02304072       0.01621045
O       16.39268778      18.98254193      22.42828453       0.16191845      -0.65762199       0.38686811
C       12.00854851      13.74278682      18.01646051       0.04354056       0.02176158       0.13990997
N       18.36810869      21.86283309      21.77621121      -0.45238814       0.25629916      -0.08421125
O       18.44279728      19.72036461      14.19305302       0.76382145      -0.14756829      -0.07851313
C       13.44131670      13.00996442      21.28445981       0.30832238       0.22558025      -0.23857304
N       19.53631375      22.44643702      22.27811027      -0.72209128      -0.03310332       0.74639358
O       23.15877813      21.78590736      16.30825094      -0.24791188       0.21343758      -0.21633049
C       13.58157386      11.33096119      22.82586444       0.09202907      -0.17737801       0.17605800
N       21.70302566      22.67568161      19.35112435      -0.01270525      -0.63850302       0.42807096
O       20.75975330      24.43349792      18.30297608       0.19164276       0.01456070       0.02995282
C       14.93011217      11.55371867      23.04747075       0.03711204       0.06967113      -0.04819455
N       22.81088591      24.00094863      16.37235033       0.22194395       0.32076657       0.33233284
O       19.37459385      21.47855025      17.59887823       0.08660975      -0.08859754       0.12055674
C       15.54836930      12.55720979      22.32129256      -0.13333039      -0.09632781      -0.02118281
N       20.56693623      20.52986340      14.09403154       0.12391296       0.24659715      -0.17182741
O       21.67904354      23.04838684      21.97755167      -0.39877276      -0.28555872      -0.05861133
C       14.80807279      13.30299459      21.40677222      -0.10754266      -0.27636483       0.22351074
N       20.29934109      14.79389869      14.06699337      -0.04487991       0.02838480       0.00542940
O       15.76451142      20.96640551      21.59693017       0.46129739      -0.26088151       0.23012307
C       15.47925675      14.35800569      20.63700694       0.05931193       0.32275236       0.38904557
N       18.26561850      19.05390585      18.42534183      -0.08322628      -0.24513172      -0.11966832
C       15.51464334      13.02870736      18.51511118       0.12233380      -0.52663606      -0.08804586
C       16.76274849      12.14921766      18.57093443      -0.16427112       0.15807070      -0.06815363
C       16.00281210      15.54270403      21.10209928      -0.10189675      -0.35449498       0.09675548
C       16.01660805      16.04855626      22.50948170      -0.13932534       0.05288028      -0.08791307
C       14.93125806      17.08740341      22.87527394       0.18162173       0.24760222       0.03619566
C       15.02213816      17.37240062      24.37668787       0.03878958      -0.00056578      -0.23085503
C       13.54230987      16.55368606      22.53173248       0.18763985       0.18014390      -0.05128473
C       15.12497217      18.39807028      22.10185363      -0.58366814      -0.14220774      -0.17017528
C       16.58743130      20.24968580      22.12265314      -0.17447366       0.98914547      -0.57531926
C       17.95782279      20.71667790      22.58060446      -0.18746743      -0.07724342       0.21933647
C       20.63534873      22.59199495      21.52224668       0.93290721       0.34743859      -0.58478634
C       20.50964359      22.23893578      20.03945344      -0.03794385       0.15041622      -0.07671131
C       21.72988317      23.72000971      18.51834057      -0.03167665       0.24072487      -0.28920187
C       23.07670744      23.93343249      17.81354528      -0.01581715      -0.04356019       0.28258711
C       23.82755049      25.13792682      18.39986926       0.04460197      -0.12849526      -0.02264604
C       25.18332639      25.30493744      17.71695719      -0.29593454       0.04320687      -0.02191364
C       24.02818770      24.92008608      19.90073249      -0.29935590       0.11743587      -0.14924630
C       22.82005883      22.82276515      15.73437888       0.39085644      -0.68161588      -0.18219040
C       22.43655644      22.74811749      14.24033159      -0.14032365      -0.12526639      -0.39965165
C       20.94426343      22.96512469      13.98314319       0.13669861      -0.14091853       0.09227248
C       20.14003300      21.82376595      14.58876620      -0.35192613       0.29462063       0.23842342
C       19.65186882      19.54418694      14.01468280      -1.16216075       0.48173689       0.12478779
C       20.15919617      18.23809945      13.68492705      -0.03806709      -1.23080987      -0.17904535
C       20.41693239      17.08431337      13.45176524       0.01284073       0.96658282       0.18597800
C       20.84602021      15.73754449      13.08291249      -0.03450353      -0.13022721      -0.25857082
C       20.60644368      15.12206760      15.44370150       0.00828806       0.03275545       0.16593497
C       20.59040212      13.40007217      13.80187351      -0.03611083       0.06701833      -0.02503011
C       20.23116377      15.46822332      11.69777819       0.04008289      -0.03324041       0.04871338
C       22.38550148      15.74015855      12.97964731      -0.15549406      -0.04863149       0.07120349
C       21.98741042      20.24729124      14.15198006       0.44801265      -0.32704186       0.16231687
C       22.83112872      21.40460692      13.62284084       0.01846286       0.10546701       0.33862551
C       22.30769525      25.25558743      15.85099891      -0.32847923       0.28312564      -0.09321055
C       20.28100801      20.75218777      19.75956197      -0.20025090       0.23567201      -0.43931525
C       20.18049954      20.50358547      18.24290083       0.28469782      -0.31808967       0.02055669
C       19.63801722      19.09349496      17.96805457       0.28118707       0.22470874      -0.14965061
C       17.46088006      19.98689961      17.65359162      -0.01935818       0.43925497      -0.24228203
C       17.99844190      21.38844743      17.92351543      -0.37003259      -0.11779055      -0.08687589
C       19.51708578      22.84791132      23.67610903       0.29052301      -0.08237701       0.11042289
C       19.19730307      21.63682329      24.54694614      -0.22350824       0.19379607      -0.09552412
C       17.87072982      21.03533454      24.08765617       0.31143440      -0.18187411      -0.06158918
C       16.58729801      16.18580917      19.97181157       0.06438516      -0.24384648      -0.39437085
C       16.38426322      15.33672436      18.85533604       0.21936671       0.63230485       0.14038862
C       16.84291109      15.69004037      17.58935870      -0.02060309      -0.14182367      -0.18612816
C       17.47652646      16.90470794      17.44017940       0.10794240       0.11097854      -0.10717870
C       17.67915033      17.75416324      18.53774287       0.07135280       0.19778445       0.37929865
C       17.26519502      17.38966281      19.80103841      -0.00047643      -0.08168454      -0.22556707
F       23.16548885      23.73131178      13.54055898      -0.00545678      -0.00101742       0.06772795
H       11.31768380      14.54871519      21.93113149      -0.05972270       0.07756276       0.10748658
H       10.56575277      14.66795645      20.33748559      -0.02399999       0.06454773      -0.00398645
H       10.68477507      13.09417858      21.14966307      -0.01280530       0.03312177       0.04954846
H       13.03183445      14.74407071      20.09382890      -0.09060099      -0.25778567       0.07888534
H       12.10633968      13.06709524      17.16985507      -0.04828933       0.11100228      -0.03282944
H       10.96415999      14.05615958      18.11062761       0.08014803      -0.01077799      -0.03711938
H       12.63656771      14.62848184      17.85734295      -0.06244211      -0.06975088      -0.03297220
H       13.04352448      10.55277627      23.35003050       0.07857599      -0.05242374       0.08589910
H       15.47975536      10.95910530      23.75866126       0.01519803      -0.03740036       0.03713491
H       16.60208024      12.76041052      22.44762542       0.01152158       0.04251381      -0.01700058
H       14.65330594      12.48575394      18.91223577       0.19842334       0.23723456      -0.21080238
H       15.29593891      13.30870033      17.48244666      -0.08452119      -0.03364689       0.15218521
H       16.63121585      11.27798506      17.93710373       0.04743671      -0.11405211      -0.03934779
H       17.63140178      12.70816356      18.23079223       0.06067639      -0.03738894      -0.01814607
H       16.94146466      11.81576021      19.59057424       0.01500933      -0.01742786       0.02067965
H       15.89470966      15.20071872      23.18555486       0.07632882       0.08806823       0.05793338
H       16.99175701      16.50272894      22.69853663      -0.02873191      -0.12216339       0.12689110
H       14.79657664      16.47428709      24.94446218      -0.01579038      -0.07277965       0.07348471
H       16.02294394      17.70614789      24.63794041       0.02543567       0.01264881       0.07441235
H       14.31305860      18.14641685      24.66039026      -0.05474365       0.05422238       0.06789522
H       12.77064376      17.23133100      22.88990716      -0.06536804       0.01328223       0.04089554
H       13.43323736      16.45031905      21.45586103      -0.05108694      -0.05325269      -0.04595105
H       13.39215912      15.57950596      22.98973696      -0.03460349      -0.06459629       0.01831719
H       14.33820182      19.11658448      22.35328756       0.13375098      -0.18009945      -0.03852715
H       15.09424279      18.22008428      21.02297773      -0.00435505       0.07971301       0.18714396
H       18.68190909      19.91095315      22.42498045      -0.10416172       0.12417224       0.01779660
H       17.60676205      22.54522999      21.75657791       0.27113977      -0.17276487      -0.02476692
H       19.68644302      22.83077315      19.62488137       0.22055022      -0.26061734       0.10330733
H       22.54832121      22.16129428      19.54227041      -0.11008779       0.22334974      -0.17241989
H       23.69553814      23.04065924      17.95607774      -0.14854952       0.30068771       0.00397040
H       23.21993976      26.03730288      18.27108677       0.06640679      -0.10784631      -0.01398297
H       25.70459363      26.16099583      18.13379691       0.08943919       0.06678689      -0.00146400
H       25.79196587      24.41886190      17.88234469       0.05421358      -0.05583139       0.00027042
H       25.08064673      25.44841294      16.64540019       0.04680250       0.01242895      -0.09131520
H       24.61405782      24.02321514      20.08698402       0.06888655      -0.08511472       0.02296683
H       24.55733326      25.76709748      20.32521901       0.07724552       0.06216981       0.07057566
H       23.07795491      24.81646731      20.42057564       0.07582232      -0.01809865       0.07157725
H       20.59133227      23.89662545      14.41944615       0.03902990      -0.02489438      -0.04983436
H       20.79624821      23.00730831      12.90150659       0.06047530       0.02285483       0.09749261
H       19.07957804      21.92979793      14.34334585       0.30822555       0.00522738       0.16071960
H       20.23143128      21.84829590      15.68107413      -0.10046141       0.01779196      -0.29995604
H       20.42002004      16.17882534      15.62474082       0.00084611      -0.10524482       0.07892991
H       19.94569997      14.54444708      16.08923860       0.05895000       0.03748829       0.04311031
H       21.64545799      14.89345416      15.72499758      -0.04682651       0.02219964      -0.01636056
H       20.28169755      13.13644047      12.79476666       0.03330539      -0.08717143       0.00680365
H       21.65230271      13.14549618      13.93459243      -0.04606931      -0.01714567      -0.02766320
H       20.01068586      12.80128819      14.50345310       0.05280772      -0.04727598      -0.06441506
H       20.68988552      14.60346384      11.22941956       0.01232065      -0.08101902      -0.04421246
H       19.16196938      15.30395271      11.80066634       0.00498850      -0.00435283      -0.01273285
H       20.39150816      16.33118475      11.05650471       0.03357306      -0.05218613      -0.04125380
H       22.83456009      15.94039011      13.94907359       0.03599203       0.01024113       0.00170192
H       22.73753512      14.77971748      12.61315072       0.03693338      -0.04633591      -0.00799544
H       22.70187198      16.51425309      12.28616582       0.05825197       0.00421078      -0.02627174
H       22.27810714      20.05115686      15.19040945      -0.05501448      -0.02469176      -0.32310858
H       22.18628973      19.35387556      13.55776982      -0.00659410       0.19143331       0.12896897
H       22.71374851      21.50652975      12.54332932      -0.04849491       0.01954486       0.07359387
H       23.87956191      21.19761927      13.84153302      -0.11189874       0.03158553      -0.04176449
H       22.28869209      25.25244351      14.76877677       0.06576480      -0.02833178       0.10398225
H       21.30809889      25.43985532      16.25192832       0.17260900       0.06901387      -0.07120479
H       22.96382767      26.06224211      16.16997312      -0.06179459      -0.03583524      -0.09110592
H       21.11048776      20.16695066      20.15462016       0.02803377      -0.06238098       0.06615906
H       19.35267100      20.42689413      20.22132965       0.21408110       0.00650277       0.02633522
H       21.16555937      20.62296794      17.77395206      -0.20838789      -0.08708056       0.16011593
H       20.22095953      18.35636192      18.52494079      -0.02040326       0.06944770      -0.09667611
H       19.72735173      18.87536856      16.88582937       0.01473434       0.02881085       0.25260852
H       17.50306403      19.77925804      16.56920754      -0.03046902       0.03718342       0.23689718
H       16.42415016      19.92257205      17.98813437       0.08247058       0.02347972      -0.02739748
H       17.83470230      21.63775783      18.97811817      -0.01122974       0.01971795      -0.09970346
H       17.50226275      22.12783421      17.29195678       0.02075866      -0.11813378       0.13297406
H       20.49492621      23.26949716      23.90412909      -0.20623517      -0.03723113      -0.01581665
H       18.74947209      23.61812465      23.80305540       0.06604065      -0.01934075       0.01306378
H       19.13503426      21.93967562      25.59057723       0.05044763      -0.03711727       0.02702287
H       19.99506641      20.89967841      24.44315011       0.01718429       0.04187289       0.06029727
H       17.06030186      21.74949967      24.25852440       0.01775320      -0.07947364      -0.03947670
H       17.64760789      20.11961896      24.63435294      -0.06068514       0.05951197      -0.00233543
H       16.69950598      15.04616786      16.73577865      -0.00797464      -0.05600639      -0.05347202
H       17.81954431      17.21600445      16.46298267      -0.02075336      -0.01464620      -0.01882131
H       17.46788171      18.04735749      20.62900787      -0.01045127       0.01701204      -0.03223345
