151
Properties=species:S:1:pos:R:3:MACE_forces:R:3 energy:=T -221.331027481326=T gnorm:=T 0.008888248359=T xtb:=T 6.7.1=T (edcfbbe)=T MACE_energy=-90873.30018176547 pbc="F F F"
C       11.16649469      13.77571501      20.39825897       0.32961788      -0.17918103      -0.19107287
N       12.66057143      12.26335376      22.24381756      -0.28071367      -0.02974405      -0.14503149
O       12.84905393      12.37395704      19.27831720      -0.09274491       0.03957720       0.18785722
C       12.64698916      13.47698088      20.16160562      -0.09945738       0.15508207      -0.05517954
N       15.92890566      14.15366513      19.76968403      -0.36536344      -0.07088433       0.05578328
O       15.86892560      19.34991487      22.22796427      -0.06991733      -0.45378012       0.36463650
C       12.55568960      12.63687933      17.92410657       0.04571926       0.09807531       0.14359965
N       18.37838195      21.86559609      21.80406040      -0.28764655       0.22728016      -0.01952303
O       18.32020656      19.52815965      13.99646674       0.95725748      -0.15619584       0.00788662
C       13.33110338      13.09653428      21.46062418       0.28676366       0.20476818      -0.17442554
N       19.58222463      22.21135528      22.42813307      -0.83195713      -0.05638984       0.66399310
O       22.80100964      21.67139731      16.59164318      -0.12650868       0.25286997      -0.32336178
C       13.19230756      11.88264768      23.39064006       0.13997400      -0.04809331       0.20047372
N       21.78393173      22.58356550      19.54887145       0.09107049      -0.69423825       0.43734459
O       20.84780293      24.42953516      18.64943985       0.41258062      -0.17613559       0.00508162
C       14.42815774      12.32919738      23.83770586      -0.05619008      -0.01534082      -0.09570668
N       22.72594425      23.90879274      16.55892607       0.22577054       0.19399884       0.26908752
O       19.35920963      21.43667895      17.75163366      -0.00730621      -0.11756267       0.13360089
C       15.13507088      13.19664814      23.02615690      -0.14755296      -0.14433800      -0.02573254
N       20.42792181      20.37020937      14.16849919       0.16422911       0.22857068      -0.09057691
O       21.79285064      22.59231305      22.24865475      -0.42233822      -0.22575539      -0.11748751
C       14.59690098      13.59141289      21.80146310      -0.15211824      -0.19712039       0.21331101
N       22.31968346      15.66944875      12.75170532       0.00841785       0.07558242      -0.01112230
O       15.81335500      21.27881580      21.08616046       0.25424455      -0.35702435       0.34966571
C       15.36111461      14.52673454      20.96786120      -0.02987656       0.44249326       0.22060992
N       18.39915201      18.93426975      18.53139061      -0.06513637      -0.19907063      -0.10212875
C       16.00163833      12.80468403      19.26401432       0.16296805      -0.48920133       0.04238152
C       17.19647778      12.05878321      19.85343003      -0.13752500       0.10063471      -0.10452604
C       15.67025026      15.83650075      21.26094801      -0.11673930      -0.36553330       0.13344577
C       15.27988620      16.58188660      22.49810109      -0.07497320       0.02011142      -0.05149809
C       14.15329887      17.63443566      22.35754301       0.16877531       0.23500296       0.03135724
C       13.69014810      18.03435036      23.76096319       0.10544272      -0.02850399      -0.17987098
C       12.97977884      17.06150448      21.56541974       0.23424906       0.14989967       0.01126595
C       14.64763025      18.89396720      21.63027650      -0.53272491      -0.14776719      -0.33629217
C       16.36596984      20.50932679      21.84031022       0.11458444       0.89618643      -0.59181744
C       17.72011342      20.75681446      22.48645675      -0.14028451      -0.00821513       0.09953664
C       20.72208058      22.31023359      21.72364546       1.10132945       0.25203502      -0.54537732
C       20.59505172      22.09953010      20.21245445      -0.08855113       0.21149508      -0.06758385
C       21.80253930      23.66795417      18.76867289      -0.25977528       0.39693280      -0.23107359
C       23.10293837      23.86356608      17.97571485      -0.04386071      -0.11796148       0.24688026
C       23.90955686      25.07226528      18.46832872       0.03112577      -0.20244585      -0.02271985
C       25.26316474      25.13338472      17.76165414      -0.24331876       0.10505035      -0.10999105
C       24.11828594      24.94262291      19.97724487      -0.21365555       0.14651698      -0.10491758
C       22.59060965      22.71491210      15.96794646       0.25643984      -0.71348573      -0.08226071
C       22.24214951      22.62639337      14.46829535      -0.08379746      -0.13467643      -0.46068825
C       20.75937070      22.81653099      14.13696275       0.12558494      -0.07987796       0.14162746
C       19.93199548      21.64526720      14.64722008      -0.38551951       0.28840378       0.10108818
C       19.54681372      19.37298754      13.96453960      -1.40793212       0.42905379      -0.03334115
C       20.12016246      18.08249043      13.68662800       0.01102148      -1.24308463      -0.12399566
C       20.47398528      16.94720034      13.49683872      -0.15350154       1.02795242       0.13548433
C       20.95028327      15.58313478      13.27826683      -0.11220340      -0.23949698       0.19498626
C       22.42580572      16.41468484      11.51276363       0.01474508       0.07688029      -0.06562306
C       23.01751587      14.40497023      12.64290720      -0.04497474       0.00553889       0.07981314
C       20.95126993      14.90866804      14.65980051       0.00456105      -0.04483175      -0.09385759
C       19.94359497      14.87670003      12.34883343       0.11857506       0.07246653      -0.01109744
C       21.84129829      20.12202060      14.36351366       0.46367379      -0.33763401       0.11684404
C       22.69423679      21.28880303      13.87098129      -0.10353792       0.06026397       0.50507607
C       22.31183363      25.19017853      16.02816689      -0.16365887       0.37064506      -0.14386768
C       20.37036069      20.63082066      19.84166379      -0.25344550       0.29846493      -0.29731188
C       20.22774220      20.46500665      18.31769961       0.35925895      -0.29886328      -0.03189315
C       19.73090060      19.04880566      17.98226102       0.12026448       0.34834015      -0.08692976
C       17.50179227      19.86351551      17.86701780       0.02222407       0.41982851      -0.18595352
C       18.00207399      21.28038535      18.13420745      -0.28317644      -0.03218464       0.04925285
C       19.52416584      22.50852516      23.85179734       0.19943758      -0.21120967       0.09345481
C       18.91023997      21.32608424      24.59971224      -0.09408979       0.27807528      -0.09202695
C       17.54492682      21.00368484      23.99622341       0.29562551      -0.26159644      -0.04158702
C       16.48626744      16.29792011      20.18623122       0.11513197      -0.36260961      -0.35390087
C       16.63778523      15.21498419      19.28191429       0.24464734       0.72423320      -0.06599529
C       17.41637698      15.34184703      18.13566400       0.00178869      -0.22094390      -0.13219091
C       18.01037785      16.55857505      17.87201077       0.11839199       0.17360433      -0.08545473
C       17.85586954      17.64152318      18.74934871      -0.03386709       0.04540003       0.26588244
C       17.12229795      17.50219847      19.90997559       0.03072559      -0.02331943      -0.13483635
F       22.97130120      23.62579625      13.79556531       0.05029339       0.04961550       0.02694966
H       11.06891104      14.53577099      21.16698206      -0.04980326       0.06650062       0.04383548
H       10.69689096      14.13781192      19.48859877      -0.04253769       0.04618487      -0.05299600
H       10.67109899      12.86910136      20.73086866      -0.03923771       0.02945175       0.01662422
H       13.14441535      14.36399754      19.73619552      -0.10262923      -0.24288819       0.12145444
H       12.89977986      11.76414600      17.37522955      -0.06666499       0.07173274      -0.12021848
H       11.48383777      12.77420695      17.75756346       0.06582818      -0.00847320      -0.02596094
H       13.09304641      13.52654960      17.57280766      -0.04817957      -0.07442696      -0.00412715
H       12.59645532      11.19640740      23.97647634       0.03957197      -0.02270677       0.10337308
H       14.81951545      11.99872317      24.78538381       0.04019752      -0.01413035       0.07375086
H       16.10535856      13.56459709      23.32443513       0.03750872       0.03597594      -0.01676336
H       15.07458051      12.28250608      19.51195682       0.23506638       0.17912211      -0.19983507
H       16.08660067      12.85510841      18.17578862      -0.11291288      -0.01078730       0.14689349
H       17.28475860      11.07868994      19.39468606       0.05235399      -0.10095788      -0.00255172
H       18.11301913      12.61679109      19.67860950       0.06763218      -0.02430869      -0.00519908
H       17.06771398      11.93031916      20.92597585       0.01452905      -0.00943088       0.01765925
H       14.94469965      15.85132385      23.23626111       0.06692678       0.12712615       0.04525500
H       16.16236147      17.08853025      22.89388287      -0.08630599      -0.14758032       0.13888257
H       13.30781724      17.16969306      24.29636778      -0.01267237      -0.06085156       0.04618015
H       14.51830747      18.45485343      24.32490995       0.02041340       0.02879410       0.10026011
H       12.89803719      18.77718309      23.70132064      -0.05095805       0.06429691       0.03350679
H       12.18276664      17.79448436      21.47659540      -0.12140092       0.02894272       0.00644694
H       13.29826153      16.77552085      20.56570213      -0.05761291      -0.03256551      -0.02401575
H       12.59007957      16.17982918      22.06779983      -0.04370471      -0.05268810      -0.00389754
H       13.90441002      19.69563318      21.68730116       0.12197965      -0.18052356       0.00360650
H       14.83816760      18.68190601      20.57392225       0.01557803       0.06660107       0.19323350
H       18.33626772      19.86135312      22.34322067      -0.11934554       0.16006389       0.02767238
H       17.74748533      22.66743120      21.76601783       0.19662061      -0.20112003      -0.04152919
H       19.76472251      22.71321280      19.84908216       0.23208789      -0.23607837       0.04548771
H       22.61336274      22.01544522      19.65389387      -0.16816493       0.34411312      -0.20475156
H       23.72038109      22.96601694      18.09525739      -0.15503790       0.30380537      -0.01190413
H       23.34573770      25.98844109      18.27983814       0.03103282      -0.09226049       0.01315957
H       25.81571312      26.00660824      18.10145594       0.06631960      -0.00789072      -0.02125320
H       25.84831646      24.24269623      17.99038999       0.01501726       0.00072886      -0.00124186
H       25.14849391      25.19766159      16.68031071       0.07131339      -0.02611954       0.02205645
H       24.70222996      25.78259419      20.34294933       0.04122531       0.01060078       0.06888680
H       23.16649340      24.93017445      20.50451382       0.08043814       0.01155758       0.07551445
H       24.64980854      24.02426218      20.21846669       0.04439371      -0.04146477       0.00825635
H       20.35668577      23.72509922      14.58316164       0.07193200      -0.04592173      -0.05301988
H       20.67944424      22.89714425      13.04959836       0.06322419       0.02717016       0.11563141
H       18.89950200      21.73914821      14.30263545       0.22236932      -0.00004068       0.20737692
H       19.92844415      21.65116346      15.74347492      -0.07962401      -0.05506497      -0.32366077
H       22.09411948      15.84241723      10.63355587       0.00143415       0.05492207       0.03241950
H       21.83574593      17.32696148      11.58016030       0.12843600      -0.07149348      -0.12200784
H       23.47118669      16.68743583      11.36673039      -0.07151071       0.00161236      -0.05975584
H       24.03831374      14.61561066      12.32818143      -0.01195299      -0.07892363       0.01168095
H       23.05662904      13.91383128      13.61114818       0.04682213      -0.08181653      -0.07393638
H       22.56876965      13.72211196      11.90695981       0.03398114      -0.01834213       0.03985124
H       20.01467977      15.12449951      15.16803815      -0.00318958      -0.05990562      -0.01414704
H       21.05039880      13.83092671      14.56486473       0.02924939      -0.05452312       0.02779178
H       21.76972695      15.30029265      15.25833977       0.00442683      -0.00063602       0.01047061
H       20.25270575      13.85303311      12.16098177       0.03155525      -0.08933795      -0.00941071
H       18.96435966      14.86523213      12.81993663      -0.03288292      -0.00885707      -0.00840638
H       19.86171326      15.40466538      11.40180237      -0.02631649      -0.03126630      -0.01222558
H       22.03691022      19.97032589      15.43083970       0.02061275      -0.02231712      -0.34641003
H       22.12060812      19.21733922      13.82175973       0.01282847       0.23012180       0.16963601
H       22.62471606      21.37987187      12.78537948      -0.02062664       0.06739302       0.09914569
H       23.73197392      21.09675034      14.14391758      -0.07839622       0.06922396      -0.05376163
H       23.18129138      25.82181047      15.84978926      -0.09552120       0.03494011      -0.03849729
H       21.78141439      25.07242105      15.09208957       0.10018432       0.04261905       0.10030454
H       21.65141262      25.66527183      16.75516934       0.06450574      -0.04425746      -0.11847670
H       21.21543107      20.03108037      20.17919044      -0.00750930      -0.05985048       0.08109833
H       19.46071084      20.26814926      20.31382340       0.20348161      -0.00228894       0.07824167
H       21.18898223      20.65437378      17.82791591      -0.23807584      -0.13075809       0.14971732
H       20.37703882      18.30868619      18.45215997       0.03095762       0.00508169      -0.04798539
H       19.75578858      18.90690535      16.88791270       0.03247906      -0.01136792       0.20462997
H       17.46417464      19.67852207      16.77782734      -0.03826364       0.04811387       0.19420756
H       16.49679745      19.75540944      18.27677425       0.09049871       0.01023891      -0.03984964
H       17.87191099      21.51578749      19.19717442      -0.00014035      -0.00879660      -0.16334001
H       17.44827926      22.00636770      17.53624355       0.03009938      -0.11938523       0.12382984
H       20.54250221      22.71296078      24.18082313      -0.21216424       0.00795277      -0.05739312
H       18.91074008      23.40459225      23.99403694       0.04580972      -0.02618898       0.03070765
H       18.80860275      21.57388878      25.65567837       0.04296705      -0.04207500      -0.00493126
H       19.56846387      20.46096658      24.50646887      -0.00368816       0.05306634       0.06172028
H       16.86120889      21.84232651      24.14793709      -0.02287165      -0.04499187      -0.03077117
H       17.11458087      20.11666637      24.45895464      -0.05313790       0.07006369      -0.00826653
H       17.54817242      14.51595169      17.45151674       0.00380697      -0.01663386      -0.00047935
H       18.59981163      16.68840084      16.97529107      -0.01403396      -0.00691534      -0.02383512
H       17.07112259      18.33596448      20.58694079       0.03880746       0.00445814      -0.05207375
