151
 energy: -221.329572213957 gnorm: 0.009908200689 xtb: 6.7.1 (edcfbbe)
C           11.45367808376146       13.57790947548697       20.62899845630886
N           13.32271901271214       11.90522653119170       21.90819419795771
O           12.95668158586744       12.50104954755883       19.01161170908183
C           12.87673050484469       13.42951072823196       20.09254126535372
N           15.95683877748175       14.38369096443052       19.23448764670436
O           16.14971376053828       19.20455044844990       22.39814077403220
C           12.45575228293138       12.97857081085139       17.78378604209285
N           18.35129574339013       21.97720518603273       21.96076316917206
O           18.28637046598957       19.70602284539667       14.34638600058897
C           13.80103354287340       12.89488842830333       21.17012033978354
N           19.53444215120924       22.43852391983838       22.54820944808402
O           23.06085510989072       21.59282475734133       16.38524232332867
C           14.07329217970912       11.38434901643176       22.86220422868605
N           21.79737632506702       22.69775385553103       19.68460273573721
O           21.00590539305114       24.54797189044092       18.67750858767725
C           15.35269435559606       11.83481482556116       23.15056385292308
N           22.79946965130809       23.81172075496712       16.56122478786134
O           19.42834723175747       21.78905021916198       17.80884150570163
C           15.86069046347954       12.86758680433324       22.38508136468388
N           20.40548004672649       20.50345976651287       14.15500047196978
O           21.72481421162090       22.91048616701180       22.35733601456550
C           15.08858969910049       13.41503335546941       21.36118386595448
N           19.81970780586614       14.77151113750278       13.87813190727470
O           15.77511369568739       21.19591862373436       21.43514615681421
C           15.64889181596286       14.51537050800147       20.57064889592845
N           18.24581045642688       19.34585126711472       18.45340607221222
C           15.98827315908511       13.14552426817728       18.49589090728453
C           17.36393741205772       12.48732485126866       18.58623534215235
C           15.99387349700314       15.76931291918050       21.02296693521973
C           15.78906475036848       16.32804862359857       22.39359322955878
C           14.60923865887376       17.32240049301393       22.53811011320076
C           14.35021535574484       17.55757729883634       24.02900334586247
C           13.35044125242605       16.75744170764776       21.88096227455580
C           14.92437545319197       18.66818283720612       21.87254640508050
C           16.46882710324875       20.44707965421904       22.08770178714328
C           17.80734823594654       20.83940525951083       22.69731144824359
C           20.66941115555068       22.56121847950525       21.83990159030209
C           20.56335364499964       22.31864244114309       20.33456745321822
C           21.88600415884464       23.70906728850536       18.81379642689935
C           23.17217703115348       23.69510032282844       17.97322464575569
C           24.19808426763672       24.73381586890264       18.45565037825448
C           25.43727680285033       24.69633908032695       17.56343185738406
C           24.58365656774920       24.41454228380697       19.89997988269763
C           22.74490483098302       22.66965611537733       15.87073287386876
C           22.32177757058118       22.67274552739538       14.38895302573467
C           20.83368640044953       22.93796787824680       14.16489623930577
C           20.00658410067846       21.78283591290749       14.70944290248050
C           19.47957732429629       19.52547476497084       14.09389537992279
C           19.95790196690811       18.22311490059592       13.70890942475757
C           20.19981606661659       17.06754392264856       13.46592286087470
C           20.60697734308938       15.71862709555345       13.07774252252480
C           20.00353510787942       14.92259842226319       15.30683766667638
C           19.93946927391593       13.38215870310115       13.49136351463743
C           20.26485299235056       15.57757925323183       11.58414961565005
C           22.13346869593923       15.60508396851358       13.27612309200923
C           21.82228772155488       20.19277766300741       14.17254107850176
C           22.67844208673846       21.35815895414494       13.69151581796618
C           22.32509449367020       25.10571077258544       16.11607417052374
C           20.24245171635470       20.87375914742028       19.93868312374686
C           20.18819133633695       20.74765063649765       18.40504358944153
C           19.61900850622015       19.38096430347867       18.00760373151594
C           17.46071199521577       20.34663331525052       17.75017371810253
C           18.03888822056219       21.71595688257297       18.09602510719970
C           19.46856447782035       22.79861244326025       23.95721124604326
C           18.94753431898879       21.61930341422097       24.77456990836066
C           17.61505520189226       21.14803858648851       24.19441397323244
C           16.57666828030062       16.44150840333124       19.91171324199376
C           16.52905069951520       15.55043779758610       18.81006884267251
C           17.00512490678215       15.92559502991374       17.55761530009359
C           17.54787496310169       17.18485534097630       17.41370567447125
C           17.65267669115645       18.04983016325939       18.51101685772503
C           17.18272137883413       17.68110754012645       19.75285120596210
F           23.05863319253124       23.67143599446710       13.72118870632388
H           11.45516904391225       14.24757989200238       21.48326369525063
H           10.79670107496752       13.98760720839150       19.86694173185412
H           11.09138239649482       12.60262508249672       20.93955415328438
H           13.25212735999812       14.40614139437418       19.74665424792618
H           11.37911287196346       13.15052015391591       17.82193240752645
H           12.95805741819053       13.90628772229709       17.48917945349164
H           12.66837980328195       12.20191247884860       17.05591454130225
H           13.61943300433628       10.57632892243431       23.41803193080630
H           15.92982535036910       11.38685005986448       23.94384886712292
H           16.85644761150299       13.25033029818900       22.55899862281583
H           15.22528108249009       12.47484341588880       18.89710613504461
H           15.74153160270070       13.36222775142924       17.45237575378001
H           18.13276507809982       13.16590306532370       18.22143971477886
H           17.58988370564299       12.23127749396364       19.61962941893035
H           17.37905362951148       11.58015931677219       17.98978108874198
H           15.60517893904887       15.50017637268140       23.08192906857347
H           16.69967035025019       16.84206602234299       22.70848994352244
H           14.07158251624124       16.62681753675765       24.51510831167305
H           15.24178323911478       17.95043136926043       24.51023302525606
H           13.53972249486830       18.27012818800495       24.16310513019953
H           12.50740616568060       17.42564496267179       22.02815226035931
H           13.50000136078958       16.62657372413400       20.81453960928618
H           13.11015640520793       15.79492389304478       22.31698640215813
H           14.12259875549890       19.39032073246111       22.05430393725671
H           15.03578831928774       18.55042083632937       20.79044925302795
H           18.50375240805963       20.00138186326399       22.58805598051285
H           17.65173814213867       22.72129837218362       21.92911121293907
H           19.79189221506655       22.99327920260265       19.94561737178025
H           22.57382289781605       22.06853935891249       19.81038619186867
H           23.63188106713968       22.70518673387346       18.06715202180776
H           23.74606540726625       25.72912560544356       18.43571431165946
H           26.19510956437122       25.37102591281076       17.95154223243304
H           25.85111760369795       23.68928118773137       17.54190456918093
H           25.20450287514582       24.98683087521085       16.54305530418757
H           25.04711342485118       23.43237811484933       19.96257151073283
H           25.29526603448713       25.15189207746106       20.26122784673619
H           23.71422963993430       24.42820123121373       20.55438881891201
H           20.50977231808016       23.85030897234535       14.66057112520437
H           20.67773058294357       23.04972414204574       13.09043439750782
H           18.95050799914332       21.92654076092280       14.46412008090266
H           20.09301661034438       21.75920963711932       15.80213434538789
H           19.95805090970073       15.97646486273500       15.57606601916074
H           19.18971670999835       14.40526876768144       15.81406551439817
H           20.95375607124591       14.50278506026716       15.66995848357839
H           19.22921184443664       12.81014897490628       14.08608881223952
H           19.67919247486543       13.25994965013074       12.44490334420451
H           20.94258720429308       12.96335873646375       13.66661736243676
H           20.76837660743361       14.71704638774959       11.15572999899706
H           19.19069209791234       15.47504247800753       11.46021559155806
H           20.59290055865616       16.46688526777759       11.05490939986941
H           22.41310498735252       15.85134547282624       14.29774779931960
H           22.46104535825852       14.59387500408803       13.05017812330999
H           22.64063336871924       16.29248255796834       12.60421086211565
H           22.12441957293365       19.93591858115798       15.19395970142812
H           21.99313821994980       19.32932179376131       13.52777368442228
H           22.53834226443227       21.51864663517228       12.62358329710937
H           23.72525608608471       21.11876980056162       13.87392166504033
H           21.33999704627550       25.29960612450185       16.54440846815454
H           23.00700696564693       25.87350740784992       16.47066351770838
H           22.28607592931647       25.16582217521098       15.03548599067060
H           21.01256613514754       20.20402848535847       20.31905508633627
H           19.27643662552171       20.58195807723918       20.34113620461774
H           21.18852850642264       20.86924725364623       17.97349222830293
H           20.17705828810298       18.58600278914460       18.50480137229049
H           19.71373654180300       19.24847997230123       16.91462215578398
H           17.48124940464208       20.19236015210105       16.65660624915379
H           16.42734074527071       20.29365151235466       18.09676292602701
H           17.85810483386057       21.92537770515008       19.15696281659951
H           17.57883322284033       22.49770227039454       17.48888423993256
H           20.47124084170094       23.09075448125682       24.26161933725541
H           18.79642056274611       23.65583742521803       24.06284362254109
H           18.82095392084535       21.92751196194854       25.81207439490180
H           19.67318131301115       20.80603314861355       24.73894608504790
H           16.86050189218806       21.93052893702983       24.30227494225608
H           17.26581433675332       20.25394147929419       24.70912515683613
H           16.94978271200929       15.26032236186883       16.70925109061526
H           17.90266193109265       17.50961521063847       16.44485712498690
H           17.32626581773046       18.35863872989906       20.57517404940841
