151
Properties=species:S:1:pos:R:3:MACE_forces:R:3 energy:=T -221.329417763692=T gnorm:=T 0.009471759603=T xtb:=T 6.7.1=T (edcfbbe)=T MACE_energy=-90873.25105652872 pbc="F F F"
C       10.52909359      14.07220129      20.93769501       0.28114918      -0.18017713      -0.20456937
N       12.01965433      12.31784383      22.55726157      -0.31931911      -0.00691090      -0.11220422
O       12.01994862      12.65398132      19.59658935      -0.08420040      -0.02648684       0.20073635
C       11.96367966      13.69034648      20.57571898      -0.08084914       0.20767896      -0.05920951
N       15.22451237      14.13028838      19.97813942      -0.37014631       0.00982923       0.14793577
O       15.58744123      19.21036564      22.59286954      -0.03007623      -0.52232721       0.36631980
C       11.68428900      13.05542588      18.28688168       0.10658087       0.00907199       0.17305044
N       17.88508761      21.86369930      22.06704715      -0.35385337       0.28335137      -0.08199246
O       19.77656181      18.37806266      13.70216388       0.80774877       0.20540028      -0.10425570
C       12.69989610      13.15689600      21.79052915       0.34259665       0.18734672      -0.17259688
N       19.06794570      22.32981009      22.65035707      -0.83728339       0.04142771       0.71914659
O       23.27113094      21.55360330      16.86434271      -0.26781701       0.20600518      -0.35097376
C       12.59258691      11.80635475      23.63170929       0.09040695      -0.09893773       0.17163087
N       21.34413088      22.39688702      19.81169858       0.01268652      -0.65337479       0.33234735
O       20.51310302      24.31364497      18.96820178       0.37685464      -0.24531681       0.07238081
C       13.88685278      12.11828324      24.02101441      -0.01804077      -0.00135665      -0.04407404
N       22.52561939      23.67594514      16.94326609       0.06101768       0.17051383       0.29951627
O       19.31740252      21.06085221      17.91200999      -0.07068720      -0.03066932       0.02134820
C       14.60644791      12.99001702      23.22584723      -0.10525636      -0.05232439      -0.10558286
N       21.52791364      19.69658458      14.29765490       0.16514599       0.23532926       0.05057691
O       21.26689119      22.75362634      22.45350410      -0.49500068      -0.26007113      -0.08723636
C       14.02362351      13.52105137      22.07451063      -0.15945503      -0.23175429       0.24317535
N       23.50493944      16.75111112      10.07448265       0.00809541       0.05449580       0.04766395
O       15.25830103      21.19949970      21.60961029       0.34532496      -0.34228821       0.32897638
C       14.80573436      14.44965076      21.25200117       0.03140017       0.40433702       0.22349169
N       18.00717284      18.76857419      18.84504915      -0.19562315      -0.19711513      -0.17756272
C       15.15341090      12.81900183      19.38269575       0.14280785      -0.55947022      -0.01074493
C       16.37383209      11.97806573      19.75358592      -0.13269048       0.14870773      -0.11187819
C       15.25724224      15.70100197      21.60765587      -0.14085659      -0.34908934       0.14258864
C       15.03970524      16.39622373      22.91405498      -0.14612731       0.03187001      -0.08245799
C       13.92844106      17.47369343      22.93266547       0.17706022       0.19080058       0.06557711
C       13.69466539      17.90777409      24.38222983       0.10245712      -0.03145382      -0.20094254
C       12.63360125      16.91717529      22.34522685       0.22614020       0.14933251      -0.02596888
C       14.34005392      18.69544277      22.10419767      -0.55439512      -0.11347076      -0.23981731
C       15.93549910      20.43813251      22.26587878       0.02570100       0.93734906      -0.63418755
C       17.28946295      20.79296642      22.85871878      -0.20894136      -0.04419203       0.12833552
C       20.21083618      22.38220442      21.95234201       1.21394172       0.18753447      -0.50435433
C       20.12448760      21.99835260      20.47226625      -0.06111939       0.17086029      -0.12737902
C       21.43973590      23.51772133      19.09170866      -0.18374508       0.40370770      -0.25425376
C       22.78785654      23.69413808      18.38314314       0.00796670       0.01232424       0.25270419
C       23.53409875      24.94380259      18.87404893       0.01947680      -0.12780706       0.02760822
C       24.94811707      24.97052996      18.29551815      -0.28710444       0.02990944      -0.06353977
C       23.57603280      24.93102228      20.40326668      -0.23689742       0.11754371      -0.15653266
C       22.77955745      22.53226122      16.29401830       0.54006704      -0.67385811      -0.07660677
C       22.41829354      22.40635480      14.80319654      -0.14639923      -0.09041052      -0.42336669
C       20.93508336      22.03980417      14.65429765       0.20947345      -0.02115005       0.12619672
C       20.70820796      20.59071635      15.07766238      -0.58226649       0.08547095       0.22956829
C       20.98059725      18.65053028      13.65586707      -1.31966283      -0.20126477       0.23587283
C       21.89391003      17.84422159      12.88716797       0.38243017      -0.95158578      -0.72658710
C       22.53833008      17.09201123      12.20245320      -0.38188757       0.75638377       0.65072753
C       23.40559758      16.20115054      11.43498598       0.14701704      -0.18257160      -0.00685786
C       22.22655643      16.89015640       9.40651971      -0.15153440       0.04727881      -0.04129124
C       24.45769607      16.08714233       9.20974963       0.00544436      -0.01995055       0.02933729
C       24.77923671      16.22354677      12.12506484      -0.06962094      -0.06400747      -0.01093649
C       22.80802754      14.78147917      11.50948085       0.01357165       0.08887797      -0.09890483
C       22.94846731      19.93850979      14.41231553       0.49990658      -0.12464627       0.06009454
C       23.28704263      21.38459007      14.06039499       0.00009065       0.02596804       0.38031100
C       21.90662500      24.86171056      16.38590188      -0.25003232       0.50276513      -0.20821451
C       19.88313663      20.50298955      20.25049303      -0.18489316       0.27506991      -0.36337171
C       19.98024640      20.13310610      18.75785020       0.33029533      -0.33805977       0.14050617
C       19.42008554      18.72065898      18.53608521       0.29504314       0.28703776      -0.14148339
C       17.32432882      19.64962773      17.91298382       0.15608604       0.30279331      -0.17312985
C       17.90743091      21.05219309      18.06740025      -0.22805751      -0.00481983      -0.03529385
C       18.99250459      22.76963898      24.03614877       0.18951412      -0.13233458       0.07713385
C       18.44234157      21.64097790      24.90315429      -0.12048044       0.23048117      -0.10152946
C       17.09984288      21.18092310      24.33848349       0.32984554      -0.20580520      -0.03276241
C       16.00895470      16.18040602      20.49620523       0.11560546      -0.44156208      -0.41719798
C       15.97316029      15.16851714      19.50140241       0.27457773       0.73563140      -0.01699914
C       16.62821560      15.33049728      18.28470476      -0.01234991      -0.18046362      -0.13972135
C       17.30532034      16.50910241      18.05594881       0.10666927       0.08596550      -0.08326259
C       17.35445377      17.51281540      19.03367238      -0.03216963       0.09541950       0.31625636
C       16.72955522      17.34461546      20.25039889       0.05625838       0.01630122      -0.14187469
F       22.64736682      23.62753897      14.13733014       0.02514606      -0.05981616       0.15653334
H       10.53972519      14.82134893      21.72367876      -0.03884378       0.05075790       0.04396791
H       10.01235308      14.47977746      20.07325701      -0.03453647       0.05650333      -0.01911300
H       10.00834584      13.18839259      21.29299175      -0.04605584       0.04920153       0.00332255
H       12.49908102      14.57180232      20.18507128      -0.12044280      -0.26163675       0.11392877
H       12.31632432      13.88740759      17.95992888      -0.02278268      -0.00072518      -0.02776435
H       11.86961769      12.18969763      17.65684360      -0.04679841       0.07565208      -0.10247497
H       10.63633673      13.34480656      18.20592017      -0.02963559       0.01189352      -0.04730015
H       11.97811246      11.12277996      24.20170602       0.07221898      -0.02914537       0.11370779
H       14.31566030      11.68644032      24.91133365       0.00686881      -0.01967749       0.03504430
H       15.62429463      13.25792237      23.47188883      -0.00181865       0.00822333       0.00474028
H       14.24132849      12.32420319      19.72514213       0.24307801       0.19854024      -0.23669524
H       15.09375667      12.93723077      18.29774068      -0.10584730      -0.01371216       0.16701694
H       16.32084691      11.01241818      19.25983367       0.04204211      -0.10065517      -0.00770752
H       17.28801372      12.48183036      19.44603603       0.03791811      -0.03610956       0.01548362
H       16.40803452      11.81985544      20.82943011       0.01280484      -0.01632303       0.00967609
H       14.77907774      15.64804616      23.66377406       0.06916695       0.10868393       0.05784603
H       15.97314504      16.87465738      23.21328543      -0.03337182      -0.11691783       0.14953803
H       14.61436262      18.29238331      24.81550262       0.01392345       0.01803422       0.08212295
H       12.93772965      18.68727800      24.42648870      -0.05170858       0.06855222       0.04420548
H       13.35428855      17.06566246      24.97908550      -0.00670188      -0.05113245       0.04285072
H       11.83196146      17.64701868      22.42153548      -0.09772904       0.02862094       0.01528439
H       12.76987977      16.66409572      21.29689190      -0.06455062      -0.05069726      -0.03295081
H       12.34016145      16.01824500      22.88182297      -0.05034775      -0.03950371      -0.00230712
H       13.58717750      19.48677204      22.16208571       0.10227107      -0.17539459       0.02106492
H       14.47210370      18.42135748      21.05348008       0.00065392       0.09493721       0.18490411
H       17.94492052      19.91752439      22.79858899      -0.10958833       0.16593540       0.00670706
H       17.20848747      22.62382985      21.96951667       0.24039848      -0.22289078      -0.00458296
H       19.32196066      22.58807476      20.01759554       0.21420562      -0.22645782       0.08646453
H       22.15933599      21.82311275      19.97381158      -0.12654000       0.31949704      -0.17545035
H       23.41091772      22.81684054      18.58594137      -0.17540340       0.27657831      -0.04983578
H       22.99214560      25.83864471      18.55480420       0.02977112      -0.13647582       0.04727221
H       25.46217818      25.87467295      18.60930439       0.07828800       0.03633134      -0.00486375
H       25.51469489      24.11030541      18.64913604       0.04113180      -0.02638663      -0.00838547
H       24.92421155      24.94242017      17.20801976       0.07064579       0.00278767      -0.03143250
H       24.06391256      24.03117254      20.77375662       0.03734899      -0.01939304       0.01025924
H       24.12359951      25.79595102      20.76635443       0.05035984       0.02092365       0.06954196
H       22.56882051      24.96340167      20.81956695       0.13772091       0.00414321       0.05536528
H       20.30818447      22.67879975      15.27630675       0.06165706       0.02987311      -0.07902897
H       20.65821420      22.17723557      13.60692445       0.03267275       0.00792204       0.08868152
H       19.66189376      20.31068987      14.93211479       0.29843978       0.05033617       0.12819775
H       20.95400291      20.48389744      16.13977122      -0.10379985      -0.01389695      -0.24938507
H       21.50130121      17.33784459      10.08436739       0.02996359      -0.04000534      -0.18823560
H       22.35552595      17.55225191       8.55071921      -0.05192518      -0.04217978       0.01900120
H       21.82438660      15.93322633       9.03950100       0.00359892       0.06989003       0.04333181
H       24.52445585      16.66277998       8.28709813       0.05291974      -0.07729148       0.01320785
H       25.44017207      16.07258712       9.67197248       0.02397126      -0.05466553      -0.08849369
H       24.16514435      15.05851782       8.94681955       0.06258290       0.05381690       0.01915085
H       25.28345123      17.16370687      11.91705940      -0.00282183       0.00774581      -0.01191088
H       24.64277948      16.13049128      13.20044782       0.02788624      -0.04925509      -0.04921211
H       25.39483176      15.39547618      11.78664218       0.07520072      -0.02349863      -0.03362352
H       22.78050044      14.45118242      12.54467491      -0.00232790      -0.02169611       0.02353186
H       21.79236393      14.77025682      11.12018412       0.02882505      -0.03756199       0.00842045
H       23.41904880      14.08870574      10.93678678       0.02402260      -0.05412583      -0.01620023
H       23.25389800      19.74487479      15.44648936      -0.02142205       0.00503870      -0.30113059
H       23.48205119      19.26404562      13.74262611      -0.03832744       0.18121334       0.20472552
H       23.12436326      21.55558721      12.99261525      -0.02668731       0.02655567       0.16101846
H       24.33901785      21.57162167      14.28649472      -0.13228306       0.01340883      -0.04893608
H       21.23811464      24.61818996      15.56746162       0.10226331       0.04853697       0.11704361
H       21.31767358      25.33557074      17.16978082       0.09834783      -0.08571186      -0.10713508
H       22.66796304      25.55390875      16.02235446      -0.11173872      -0.01495491      -0.03569776
H       20.62697149      19.92383337      20.79688161      -0.00215696      -0.07136520       0.05888688
H       18.88991307      20.24013403      20.60658435       0.23836062       0.00683622       0.11236952
H       21.02477381      20.17563959      18.42939982      -0.21740904      -0.09033860       0.09050516
H       19.90812536      18.01481164      19.20898353       0.00083327       0.03355708      -0.06142086
H       19.61541415      18.41300368      17.49299444      -0.00388566       0.02418145       0.19668630
H       17.44091625      19.30933301      16.86709726      -0.07117155       0.08110123       0.17778486
H       16.26289836      19.67324757      18.16105381       0.06150483      -0.00795081      -0.06647091
H       17.62660601      21.45060131      19.04989849       0.00854633      -0.02473459      -0.11885498
H       17.52702696      21.71710392      17.29007664      -0.01281489      -0.07654861       0.15722355
H       19.99834225      23.06142109      24.33568372      -0.20984599      -0.01361421      -0.04740264
H       18.33248827      23.64268403      24.08721205       0.05322471      -0.03871101       0.02800589
H       18.32200405      21.99456275      25.92603977       0.03615010      -0.04725095       0.02167040
H       19.14760744      20.80889221      24.90303532       0.00230592       0.05455557       0.05109936
H       16.36796774      21.98951775      24.40572724      -0.01196794      -0.06220750      -0.02611981
H       16.72190492      20.32248829      24.89164958      -0.07090831       0.03976179      -0.01202056
H       16.60583480      14.55937908      17.52916013       0.00809010      -0.02672297      -0.01939582
H       17.80838107      16.66000830      17.11083946      -0.00154041       0.03091304      -0.00078667
H       16.81950982      18.12499431      20.98676304       0.02079095      -0.00678982      -0.05447375
