151
 energy: -221.331027481326 gnorm: 0.008888248359 xtb: 6.7.1 (edcfbbe)
C           11.16649468655691       13.77571500855356       20.39825897173325
N           12.66057143378452       12.26335376230037       22.24381756427939
O           12.84905393023400       12.37395703924574       19.27831719591216
C           12.64698916178223       13.47698088202459       20.16160561605626
N           15.92890566186288       14.15366512896198       19.76968402952139
O           15.86892560354698       19.34991486778058       22.22796427341224
C           12.55568960491886       12.63687932518023       17.92410657489611
N           18.37838195393542       21.86559608677558       21.80406039530638
O           18.32020655929043       19.52815965423741       13.99646673839871
C           13.33110338433934       13.09653428064931       21.46062417832116
N           19.58222463429009       22.21135527940576       22.42813307168243
O           22.80100964179005       21.67139731389837       16.59164317572135
C           13.19230756288579       11.88264768314132       23.39064005776218
N           21.78393173082902       22.58356550327040       19.54887144686467
O           20.84780292596577       24.42953515849242       18.64943984963419
C           14.42815774227875       12.32919738094165       23.83770585582177
N           22.72594424651378       23.90879273773605       16.55892607138833
O           19.35920962827677       21.43667895045022       17.75163366309118
C           15.13507088292628       13.19664813643292       23.02615689940502
N           20.42792181079027       20.37020937075302       14.16849919376765
O           21.79285064030472       22.59231304794339       22.24865475203012
C           14.59690098236500       13.59141289369710       21.80146309504415
N           22.31968346288706       15.66944875075257       12.75170531825739
O           15.81335500366930       21.27881579706612       21.08616046455585
C           15.36111460885080       14.52673453829130       20.96786119925228
N           18.39915201465276       18.93426974559652       18.53139061062969
C           16.00163833423701       12.80468402560484       19.26401432344662
C           17.19647777991381       12.05878320607600       19.85343003401963
C           15.67025026441972       15.83650075328297       21.26094800702790
C           15.27988619618776       16.58188660458465       22.49810108864584
C           14.15329886782065       17.63443565826109       22.35754301231834
C           13.69014809788840       18.03435036368860       23.76096318973711
C           12.97977883815552       17.06150447663041       21.56541974496161
C           14.64763025366051       18.89396720129173       21.63027650472091
C           16.36596983920255       20.50932678632281       21.84031021815211
C           17.72011341758745       20.75681446029839       22.48645675465053
C           20.72208057803148       22.31023359014836       21.72364545872941
C           20.59505172244014       22.09953010077382       20.21245444835958
C           21.80253930125675       23.66795416797556       18.76867288913447
C           23.10293837142773       23.86356608228335       17.97571484657295
C           23.90955686301344       25.07226527626828       18.46832871926990
C           25.26316473880350       25.13338472289930       17.76165414043481
C           24.11828594067129       24.94262291334726       19.97724487240043
C           22.59060964784026       22.71491210283029       15.96794645623962
C           22.24214950803932       22.62639337167816       14.46829535457034
C           20.75937070009042       22.81653098855370       14.13696275005542
C           19.93199547715498       21.64526719788880       14.64722008286082
C           19.54681372457592       19.37298753850338       13.96453959955254
C           20.12016246073438       18.08249042896712       13.68662799567694
C           20.47398528461260       16.94720033723672       13.49683872434967
C           20.95028327233111       15.58313477970987       13.27826683216425
C           22.42580571790088       16.41468484247092       11.51276362810331
C           23.01751587345753       14.40497022903802       12.64290720020217
C           20.95126993221682       14.90866804367958       14.65980051282380
C           19.94359497415629       14.87670003119405       12.34883342727916
C           21.84129829306715       20.12202060098918       14.36351365854213
C           22.69423679418279       21.28880302869987       13.87098128914599
C           22.31183363473377       25.19017852944113       16.02816688906270
C           20.37036069260087       20.63082066119766       19.84166378824131
C           20.22774220373945       20.46500664939946       18.31769961023342
C           19.73090059504285       19.04880565524908       17.98226101822490
C           17.50179226532809       19.86351550669043       17.86701779748669
C           18.00207398591252       21.28038535349782       18.13420744953711
C           19.52416584147798       22.50852515593446       23.85179734190499
C           18.91023996732408       21.32608423756825       24.59971224070678
C           17.54492681950832       21.00368483559700       23.99622341115483
C           16.48626743917242       16.29792011243535       20.18623121995575
C           16.63778523214167       15.21498418764102       19.28191429411736
C           17.41637697872315       15.34184703455316       18.13566399837361
C           18.01037784583287       16.55857504649082       17.87201077161790
C           17.85586954298185       17.64152317576317       18.74934870661926
C           17.12229794777804       17.50219846897728       19.90997558908241
F           22.97130120160455       23.62579624999753       13.79556530999100
H           11.06891104307086       14.53577099414070       21.16698205553074
H           10.69689096197584       14.13781192397810       19.48859877365075
H           10.67109899241261       12.86910135863920       20.73086866226365
H           13.14441534770775       14.36399753875644       19.73619551668921
H           12.89977985792685       11.76414600320011       17.37522955370546
H           11.48383777475680       12.77420694655318       17.75756346270278
H           13.09304641235442       13.52654960398390       17.57280765999785
H           12.59645532063714       11.19640739808172       23.97647634408774
H           14.81951544827668       11.99872316567156       24.78538381484662
H           16.10535855750076       13.56459708726673       23.32443513338967
H           15.07458051442606       12.28250607912660       19.51195681810140
H           16.08660067258850       12.85510840665185       18.17578861864858
H           17.28475860424945       11.07868994166871       19.39468605680673
H           18.11301912954497       12.61679108970998       19.67860949855328
H           17.06771398274218       11.93031916410075       20.92597584863685
H           14.94469964784287       15.85132385305703       23.23626110997219
H           16.16236147339303       17.08853025060700       22.89388287433800
H           13.30781724452822       17.16969306490947       24.29636778095988
H           14.51830746783281       18.45485343468909       24.32490995198989
H           12.89803719005981       18.77718308541796       23.70132063539214
H           12.18276663575414       17.79448436294318       21.47659540348102
H           13.29826152643740       16.77552084644923       20.56570212654862
H           12.59007957396879       16.17982918371366       22.06779983133214
H           13.90441002227782       19.69563318031054       21.68730116190563
H           14.83816759626694       18.68190600589897       20.57392225223170
H           18.33626772152596       19.86135311722101       22.34322067371102
H           17.74748533293677       22.66743119694028       21.76601783304384
H           19.76472251249450       22.71321280248179       19.84908215793178
H           22.61336273509762       22.01544522435277       19.65389387388689
H           23.72038108516349       22.96601694401744       18.09525739326554
H           23.34573769743690       25.98844109288955       18.27983813781018
H           25.81571312071785       26.00660823545932       18.10145594026371
H           25.84831646093060       24.24269623122235       17.99038998780326
H           25.14849390623922       25.19766159077216       16.68031071170600
H           24.70222996425565       25.78259418671151       20.34294933073716
H           23.16649339941204       24.93017444511502       20.50451382405392
H           24.64980853994641       24.02426218084210       20.21846668675983
H           20.35668577260052       23.72509922253750       14.58316163809945
H           20.67944423917945       22.89714424786015       13.04959836082139
H           18.89950199829293       21.73914821492682       14.30263545033155
H           19.92844415011732       21.65116345803195       15.74347492076884
H           22.09411948215331       15.84241723105103       10.63355586630769
H           21.83574592538979       17.32696147712725       11.58016030298856
H           23.47118668506269       16.68743582718617       11.36673039052276
H           24.03831374300930       14.61561066186364       12.32818143183037
H           23.05662904409596       13.91383128204110       13.61114817580210
H           22.56876964749772       13.72211195916564       11.90695981390859
H           20.01467977047615       15.12449951121997       15.16803814736059
H           21.05039879677393       13.83092670797768       14.56486472804939
H           21.76972695469558       15.30029265409660       15.25833976639177
H           20.25270574666509       13.85303311285258       12.16098176986677
H           18.96435965623986       14.86523213215958       12.81993663423967
H           19.86171325519753       15.40466537706861       11.40180236924006
H           22.03691021605726       19.97032589202542       15.43083969608791
H           22.12060811965606       19.21733921776957       13.82175973312156
H           22.62471606471837       21.37987187471149       12.78537947680133
H           23.73197392424446       21.09675034249604       14.14391758069337
H           23.18129138233496       25.82181047469991       15.84978925580064
H           21.78141438671600       25.07242104927964       15.09208957430678
H           21.65141261559184       25.66527183288506       16.75516934312568
H           21.21543107307033       20.03108037375436       20.17919043879402
H           19.46071083851450       20.26814926067212       20.31382340382310
H           21.18898222736513       20.65437378118825       17.82791590886401
H           20.37703881848039       18.30868618892192       18.45215996594934
H           19.75578857923339       18.90690535089397       16.88791269904739
H           17.46417463856491       19.67852207098502       16.77782733593296
H           16.49679745220510       19.75540944488606       18.27677425437657
H           17.87191098851150       21.51578749124312       19.19717441928955
H           17.44827926054190       22.00636769889685       17.53624354755775
H           20.54250220615633       22.71296078462494       24.18082312757316
H           18.91074008219258       23.40459224585174       23.99403693949480
H           18.80860275336420       21.57388877556274       25.65567837307384
H           19.56846387383373       20.46096658110151       24.50646886534092
H           16.86120889210354       21.84232651000567       24.14793709234729
H           17.11458086512867       20.11666636678138       24.45895464213320
H           17.54817242410284       14.51595168638447       17.45151674272584
H           18.59981163111239       16.68840083868083       16.97529107187081
H           17.07112258553747       18.33596447580835       20.58694078536490
