151
Properties=species:S:1:pos:R:3:MACE_forces:R:3 energy:=T -221.330626163552=T gnorm:=T 0.003757253016=T xtb:=T 6.7.1=T (edcfbbe)=T MACE_energy=-90873.32766589768 pbc="F F F"
C       10.93151228      13.92183365      20.95454751       0.29147079      -0.12088308      -0.26306110
N       12.62125861      12.19811937      22.34693018      -0.31193375       0.01288591      -0.10704235
O       12.45293036      12.84922616      19.35292783      -0.05901673      -0.02672192       0.17832339
C       12.36965883      13.71898819      20.48192496      -0.11816585       0.19263772      -0.01425735
N       15.64765737      14.12690943      19.60309202      -0.34851594      -0.01486949       0.10735066
O       16.10146035      19.15648602      22.32745747      -0.03053305      -0.54525419       0.35241821
C       12.09655635      13.45035467      18.12696260       0.00842341       0.07929826       0.15263303
N       18.44609755      21.76273916      21.73581833      -0.35319113       0.26951029      -0.03102333
O       18.52900205      19.58131363      14.08959132       0.82060202      -0.06521618      -0.07015028
C       13.21799876      13.09099010      21.57103660       0.27048187       0.21598750      -0.19432188
N       19.66857560      22.19056335      22.26268998      -0.74361644      -0.05053500       0.73729322
O       23.19549449      21.87237003      16.23925202      -0.27819399       0.23744750      -0.27079070
C       13.31037876      11.61431135      23.31103172       0.10459366      -0.14808462       0.17746722
N       21.69495913      22.49794408      19.25704218      -0.00244445      -0.69301951       0.31505066
O       20.67860730      24.35563899      18.48063738       0.32327380      -0.12687840       0.05043693
C       14.64114835      11.90036200      23.57344024      -0.00563029       0.03974875      -0.05447271
N       22.64453178      24.04171970      16.38100041       0.22577953       0.31787273       0.29336993
O       19.42539414      21.22673931      17.54429973      -0.04707832      -0.16589668       0.12711731
C       15.27207091      12.83172606      22.76915478      -0.16222093      -0.04812919      -0.05804132
N       20.60758420      20.50868911      14.05292120       0.09242891       0.18137157      -0.16987573
O       21.83148043      22.69901944      21.91565197      -0.43809510      -0.28322243      -0.03038540
C       14.56480425      13.44061803      21.73324791      -0.07797736      -0.19871648       0.22647377
N       22.49451724      15.55010941      13.29084794       0.03792648       0.09537159       0.01459280
O       15.80480920      21.16183374      21.36915783       0.30721372      -0.34573844       0.27051407
C       15.25885959      14.42352886      20.89015212      -0.00923537       0.34784056       0.26642600
N       18.30583627      18.83056642      18.44350586      -0.16902032      -0.29822512      -0.05886182
C       15.57360590      12.82711071      18.98349204       0.15227884      -0.52765051      -0.02266670
C       16.80441062      11.98513056      19.31635839      -0.14206476       0.13439512      -0.09805852
C       15.68271179      15.68408022      21.24429759      -0.12405076      -0.31808314       0.13633939
C       15.50466367      16.34178070      22.57650080      -0.09288490       0.01121784      -0.03827749
C       14.42069472      17.44110708      22.67603643       0.15885303       0.22248597       0.04080509
C       14.25672320      17.82614688      24.14900426       0.09013859      -0.02585332      -0.20714183
C       13.08877520      16.93976780      22.12221267       0.24384517       0.16989568      -0.03685716
C       14.81950566      18.69069552      21.88193638      -0.56827926      -0.08639687      -0.22014276
C       16.48289326      20.37056707      21.98657031       0.04380051       0.95055232      -0.55522727
C       17.87886578      20.66579769      22.50999500      -0.14794198      -0.05341751       0.11707950
C       20.75071476      22.31653811      21.48005189       1.06753542       0.28570067      -0.59979718
C       20.55252898      22.00896389      19.99402425      -0.05402659       0.19961688      -0.12447696
C       21.66764519      23.63508224      18.55693892      -0.16484253       0.35788126      -0.31610042
C       22.96766264      23.95571411      17.80814184       0.03664983      -0.06696713       0.32247660
C       23.65147494      25.19047793      18.41164510       0.02784313      -0.08974062      -0.08073571
C       24.91896317      25.54394705      17.63631740      -0.26138057       0.06616205       0.00784427
C       24.00904586      24.88277106      19.86733430      -0.27282029       0.12220851      -0.10954449
C       22.74710819      22.88968950      15.70412488       0.45352980      -0.78649842      -0.11918333
C       22.34778604      22.82162551      14.21415469      -0.06885246      -0.09214937      -0.51080577
C       20.84923012      22.96211876      13.94540822       0.14741917      -0.10091530       0.13038479
C       20.09969810      21.77748032      14.53648726      -0.38750491       0.31067445       0.12203928
C       19.75385911      19.47138838      13.96946257      -1.29336472       0.36522718       0.15280635
C       20.34213608      18.17754304      13.74258131       0.04685063      -1.25711133      -0.06250444
C       20.66207679      17.02095059      13.63773676      -0.08725557       1.07309717       0.03831367
C       21.04575857      15.61710060      13.51610609      -0.23792845      -0.30026033       0.14648866
C       22.93908663      16.25581327      12.10544468       0.03094312       0.05393606      -0.05084102
C       23.06527436      14.21895798      13.32818142      -0.07096949       0.03888094       0.00523050
C       20.68139913      14.96401294      14.86084338      -0.00872012      -0.01028019      -0.09940922
C       20.18959644      14.99874371      12.39029356       0.14573478       0.03026978       0.03406384
C       22.04092021      20.30985991      14.12369508       0.50990160      -0.32318756       0.07579308
C       22.81334353      21.50946979      13.57858876      -0.03212074       0.04763200       0.46347557
C       21.99748034      25.25009519      15.91524948      -0.37152991       0.29583162      -0.14082301
C       20.34327225      20.51840565      19.71317244      -0.20535471       0.29753305      -0.31919198
C       20.22474928      20.25305496      18.20059697       0.33137432      -0.21357442      -0.00243542
C       19.66469863      18.84491224      17.94684416       0.23283228       0.27873405      -0.23103583
C       17.49091836      19.75213245      17.67007832       0.02751836       0.42085211      -0.24510401
C       18.04874860      21.15633919      17.87825248      -0.26619683      -0.02552432      -0.00405346
C       19.69356829      22.55114089      23.67227613       0.20621508      -0.14573682       0.09092065
C       19.18795611      21.37933640      24.50949588      -0.13031709       0.24832367      -0.09346810
C       17.80040936      20.97223228      24.01837624       0.30112615      -0.21408340      -0.06678737
C       16.39464743      16.19082132      20.11672796       0.08766625      -0.34722480      -0.39889853
C       16.35757983      15.18745053      19.11493834       0.24688064       0.68417551      -0.03443741
C       16.98433635      15.36954579      17.88596672      -0.00003377      -0.15166645      -0.13440979
C       17.63605684      16.56204986      17.65313217       0.11292595       0.10498504      -0.10547372
C       17.68888087      17.55805986      18.63736172       0.04022349       0.12350874       0.30005206
C       17.09081670      17.36922324      19.86553766       0.04417824      -0.02827101      -0.16506753
F       23.02079805      23.86083208      13.53626678       0.00219255      -0.01149595       0.09440671
H       10.48961492      12.95493259      21.17324492      -0.03811382       0.03832373       0.02764505
H       10.92841142      14.52589502      21.85621956      -0.04570711       0.04843979       0.07786235
H       10.34492436      14.42730953      20.19270513      -0.03308757       0.05633412      -0.03244228
H       12.81598247      14.68705622      20.20462192      -0.09904458      -0.26479221       0.05472118
H       12.71520457      14.33662915      17.93354055      -0.05990958      -0.10630886      -0.02167705
H       12.27936517      12.69913067      17.36243645      -0.04175409       0.11375692      -0.06735648
H       11.04102638      13.73980835      18.10677655       0.09472235      -0.02827342      -0.04066459
H       12.76198044      10.89086676      23.89879394       0.07338613      -0.04098994       0.09665956
H       15.16440175      11.40887335      24.37738528       0.01441022      -0.03442026       0.05139492
H       16.30895922      13.09158327      22.92596616       0.02238019       0.01074532      -0.00865046
H       14.66672753      12.32446269      19.32616102       0.20833417       0.18364235      -0.21200634
H       15.49858472      12.97086273      17.90342767      -0.09966705      -0.01438362       0.14401371
H       16.77466821      11.05138927      18.76246403       0.04333823      -0.09526223      -0.00764707
H       17.71131338      12.52469853      19.05149902       0.04539472      -0.03992948      -0.00346705
H       16.83165752      11.75876948      20.37990078       0.01708566      -0.01030526       0.01306487
H       15.24685687      15.56829289      23.30272593       0.08401614       0.11608534       0.04776663
H       16.45658122      16.78658656      22.87227306      -0.04745797      -0.11775324       0.14203341
H       13.50600284      18.60579793      24.25516932      -0.04633772       0.06357450       0.04470904
H       13.94252862      16.96579061      24.73317669      -0.01350771      -0.06248308       0.05084950
H       15.19742218      18.19447594      24.54923760       0.02670406       0.01177678       0.09414289
H       12.31109852      17.68658620      22.25999536      -0.09247917       0.02298555       0.02428251
H       13.17592454      16.72851336      21.05994440      -0.05330115      -0.06085633      -0.04349032
H       12.79249309      16.02834470      22.63446818      -0.05469986      -0.06403796       0.00259987
H       14.08778570      19.49323212      22.01874763       0.11527881      -0.19048752      -0.00328766
H       14.88845668      18.46809692      20.81296244       0.01470195       0.06652382       0.19820909
H       18.50691331      19.78097296      22.35866624      -0.10818790       0.15497239       0.03227161
H       17.77481633      22.53202411      21.69909704       0.22793374      -0.19771536      -0.01805341
H       19.69244423      22.58692173      19.64067135       0.23590081      -0.23546117       0.06052233
H       22.55346582      21.97511752      19.34207831      -0.11297563       0.28156963      -0.14418373
H       23.65275663      23.10757349      17.90223693      -0.20443831       0.26643460      -0.00873919
H       22.94912239      26.02867671      18.40354409       0.07285735      -0.10089084      -0.02118646
H       25.60414841      24.69918367      17.64386075       0.07438842      -0.05381586      -0.00682999
H       24.70723446      25.79624886      16.60114277       0.03305954       0.00791385      -0.07057100
H       25.41225239      26.39164053      18.10482548       0.06758979       0.03676997      -0.01609679
H       23.13976329      24.55559542      20.43309594       0.05710119       0.00678369       0.08504249
H       24.76093152      24.09904730      19.91565770       0.06857844      -0.06870978       0.01797162
H       24.41031434      25.77211998      20.34437639       0.07040900       0.01501470       0.06543111
H       20.44202041      23.87311504      14.37659825       0.04305996      -0.03830905      -0.04930530
H       20.71296505      23.00017710      12.86246247       0.05775335       0.03340899       0.07534345
H       19.04196278      21.82436285      14.26623678       0.25431900       0.01770807       0.19326734
H       20.16899338      21.80481697      15.63085357      -0.08606122      -0.03550892      -0.30651746
H       22.75753245      15.69489910      11.17623965      -0.00550348       0.06351429       0.03275112
H       22.43413974      17.21745803      12.03866510       0.13504025      -0.06911574      -0.08369010
H       24.01141654      16.43067146      12.19279113      -0.04807921       0.01189745      -0.07453771
H       22.81696745      13.72835161      14.26335420       0.04789155      -0.09285609      -0.01861461
H       22.74239276      13.58474805      12.48902891       0.01631820      -0.01538145       0.06095610
H       24.14769269      14.32151371      13.27473502      -0.00992592      -0.07819764       0.00291630
H       21.40303260      15.25490932      15.61897135       0.01010884       0.00457847       0.02804469
H       19.69586925      15.30333711      15.17173064       0.01642211      -0.06653416      -0.01768190
H       20.65762497      13.88226817      14.77072854       0.03129864      -0.08587739       0.04191823
H       20.42450494      13.94318799      12.27851646       0.00077051      -0.04920909      -0.02067210
H       19.13612723      15.10025133      12.63850869      -0.01384048      -0.01370494      -0.00840910
H       20.36900918      15.50851620      11.44666130      -0.01708514      -0.02918571      -0.01763193
H       22.33829432      20.14722894      15.16553629      -0.01345350       0.00593231      -0.31238086
H       22.29930642      19.42054697      13.54655658       0.01900193       0.23355116       0.15771072
H       22.67122340      21.60055650      12.50055122      -0.03568676       0.07060574       0.08592959
H       23.87371329      21.36021772      13.78170350      -0.11252424       0.04954234      -0.03052397
H       22.01995128      25.31368050      14.83391266       0.04671768      -0.02859120       0.13433656
H       20.96913341      25.28273957      16.28289526       0.14287977       0.08327063      -0.07770919
H       22.52627266      26.11174012      16.31286878      -0.03972848      -0.02232377      -0.05564080
H       21.18449574      19.94591988      20.10315282      -0.00241204      -0.07068750       0.07488428
H       19.42577513      20.18649358      20.19299660       0.21646000       0.00407798       0.07908612
H       21.20589900      20.35674846      17.72213453      -0.19420774      -0.10625942       0.14415841
H       20.25354564      18.10417071      18.48865515      -0.00489421       0.03412876      -0.03779989
H       19.72444542      18.62854241      16.86408808       0.02011221      -0.00709371       0.24370968
H       17.50085117      19.50422309      16.59291492      -0.04818757       0.07272020       0.21892684
H       16.46260568      19.71338385      18.03311400       0.10143317       0.01191899      -0.04479547
H       17.88955579      21.45501507      18.92135548      -0.00244676      -0.00670791      -0.12550807
H       17.55684263      21.87167474      17.21748121       0.01826456      -0.10305145       0.13892265
H       20.72213351      22.81323421      23.91920113      -0.22738373      -0.00590478      -0.04239875
H       19.05239158      23.42728224      23.82065108       0.05607330      -0.04280942       0.01731372
H       19.14908628      21.67178651      25.55752883       0.03495597      -0.04551797       0.01789013
H       19.87616424      20.53934984      24.40735151       0.01095104       0.05054889       0.05619289
H       17.09062699      21.78636732      24.18510557      -0.01055773      -0.05886143      -0.03512967
H       17.44592225      20.08860383      24.54697841      -0.06571465       0.04947561      -0.00327673
H       16.96051477      14.60500714      17.12425767       0.00123185      -0.03932461      -0.02502119
H       18.11246573      16.74059661      16.69909926      -0.01409834       0.00388802      -0.00877447
H       17.18827172      18.14056894      20.60829205       0.02648393       0.01920434      -0.04583017
