151
Properties=species:S:1:pos:R:3:MACE_forces:R:3 energy:=T -221.331712856415=T gnorm:=T 0.008207813709=T xtb:=T 6.7.1=T (edcfbbe)=T MACE_energy=-90873.34915277261 pbc="F F F"
C       11.18053804      14.04524458      20.98113144       0.25806254      -0.15537924      -0.34872159
N       12.86078137      12.04280370      21.97793488      -0.32358629       0.05367328      -0.07395669
O       12.44479437      13.01646361      19.14432717      -0.02196850      -0.06086133       0.17428522
C       12.54440768      13.78709301      20.34002714      -0.12548678       0.22662159       0.03352135
N       15.69765001      14.23523541      19.28186903      -0.34000660      -0.01899837       0.16289479
O       16.39268778      18.98254193      22.42828453       0.11968661      -0.58349045       0.34479362
C       12.00854851      13.74278682      18.01646051       0.02560263       0.04889014       0.13381718
N       18.36810869      21.86283309      21.77621121      -0.40138931       0.30014052      -0.03851470
O       18.44279728      19.72036461      14.19305302       0.78900452      -0.14873290      -0.10373865
C       13.44131670      13.00996442      21.28445981       0.31393719       0.22290693      -0.20415155
N       19.53631375      22.44643702      22.27811027      -0.76802488      -0.03408031       0.73898522
O       23.15877813      21.78590736      16.30825094      -0.26496221       0.16904445      -0.24382886
C       13.58157386      11.33096119      22.82586444       0.06978999      -0.19615719       0.15697682
N       21.70302566      22.67568161      19.35112435      -0.04878723      -0.64229974       0.37729020
O       20.75975330      24.43349792      18.30297608       0.21923168      -0.02174032       0.04371591
C       14.93011217      11.55371867      23.04747075       0.05756231       0.08097835      -0.07189517
N       22.81088591      24.00094863      16.37235033       0.23735182       0.34081749       0.32758525
O       19.37459385      21.47855025      17.59887823      -0.00728758      -0.08651914       0.06889785
C       15.54836930      12.55720979      22.32129256      -0.15197012      -0.09278093       0.01174147
N       20.56693623      20.52986340      14.09403154       0.12287618       0.20806608      -0.13824335
O       21.67904354      23.04838684      21.97755167      -0.40877306      -0.30553273      -0.01646887
C       14.80807279      13.30299459      21.40677222      -0.12223884      -0.22771224       0.17748422
N       20.29934109      14.79389869      14.06699337      -0.02649745       0.05847672       0.02961068
O       15.76451142      20.96640551      21.59693017       0.39579107      -0.26376812       0.21104677
C       15.47925675      14.35800569      20.63700694       0.05333316       0.29985645       0.32743095
N       18.26561850      19.05390585      18.42534183      -0.17385581      -0.32495598      -0.07297618
C       15.51464334      13.02870736      18.51511118       0.11052900      -0.55932643      -0.09637572
C       16.76274849      12.14921766      18.57093443      -0.17190124       0.15558317      -0.05700460
C       16.00281210      15.54270403      21.10209928      -0.10894668      -0.30923298       0.08222459
C       16.01660805      16.04855626      22.50948170      -0.11459061       0.02992317      -0.04970657
C       14.93125806      17.08740341      22.87527394       0.17086752       0.25373890       0.03822027
C       15.02213816      17.37240062      24.37668787       0.06325904      -0.00580666      -0.22764841
C       13.54230987      16.55368606      22.53173248       0.19853656       0.17486668      -0.04142804
C       15.12497217      18.39807028      22.10185363      -0.63713555      -0.15439912      -0.13393144
C       16.58743130      20.24968580      22.12265314      -0.14216682       0.92127221      -0.54106860
C       17.95782279      20.71667790      22.58060446      -0.19207695      -0.10449779       0.16537700
C       20.63534873      22.59199495      21.52224668       1.09052091       0.31376336      -0.58934419
C       20.50964359      22.23893578      20.03945344      -0.06338542       0.19193473      -0.12473899
C       21.72988317      23.72000971      18.51834057      -0.08110699       0.25731900      -0.29845273
C       23.07670744      23.93343249      17.81354528       0.00082778      -0.08472587       0.23698735
C       23.82755049      25.13792682      18.39986926       0.02641623      -0.12480614      -0.03743847
C       25.18332639      25.30493744      17.71695719      -0.27338430       0.06586954      -0.02778020
C       24.02818770      24.92008608      19.90073249      -0.28157008       0.13028068      -0.12602054
C       22.82005883      22.82276515      15.73437888       0.41598883      -0.71313167      -0.18889721
C       22.43655644      22.74811749      14.24033159      -0.14218952      -0.16451580      -0.41370619
C       20.94426343      22.96512469      13.98314319       0.13831055      -0.09294691       0.08955987
C       20.14003300      21.82376595      14.58876620      -0.36387523       0.30148956       0.16149573
C       19.65186882      19.54418694      14.01468280      -1.21533760       0.47103961       0.14167691
C       20.15919617      18.23809945      13.68492705      -0.03285391      -1.22721783      -0.14628527
C       20.41693239      17.08431337      13.45176524      -0.00259335       1.01838928       0.19037499
C       20.84602021      15.73754449      13.08291249      -0.11091420      -0.18743917      -0.32366641
C       20.60644368      15.12206760      15.44370150      -0.02492593       0.06704342       0.13722477
C       20.59040212      13.40007217      13.80187351      -0.04764172       0.05505887      -0.03066240
C       20.23116377      15.46822332      11.69777819       0.06716843      -0.02176758       0.05810917
C       22.38550148      15.74015855      12.97964731      -0.11618407      -0.06374882       0.08155031
C       21.98741042      20.24729124      14.15198006       0.44609674      -0.34803041       0.08644004
C       22.83112872      21.40460692      13.62284084      -0.00288731       0.08024036       0.45420214
C       22.30769525      25.25558743      15.85099891      -0.31252132       0.34017764      -0.12703895
C       20.28100801      20.75218777      19.75956197      -0.23345272       0.25251108      -0.33572517
C       20.18049954      20.50358547      18.24290083       0.32242431      -0.26830046       0.00780217
C       19.63801722      19.09349496      17.96805457       0.30805411       0.24558110      -0.23600129
C       17.46088006      19.98689961      17.65359162       0.01639655       0.40236257      -0.21275164
C       17.99844190      21.38844743      17.92351543      -0.27237086      -0.08226263      -0.03049066
C       19.51708578      22.84791132      23.67610903       0.23529653      -0.12629441       0.10203603
C       19.19730307      21.63682329      24.54694614      -0.16400163       0.19411828      -0.10437014
C       17.87072982      21.03533454      24.08765617       0.35487208      -0.14655049      -0.04963775
C       16.58729801      16.18580917      19.97181157       0.05168325      -0.30613003      -0.42391017
C       16.38426322      15.33672436      18.85533604       0.28025506       0.71488662       0.02936494
C       16.84291109      15.69004037      17.58935870      -0.02366332      -0.13359165      -0.13588029
C       17.47652646      16.90470794      17.44017940       0.11841184       0.13339704      -0.10542521
C       17.67915033      17.75416324      18.53774287       0.06043380       0.13830197       0.33130694
C       17.26519502      17.38966281      19.80103841       0.02029257      -0.04716046      -0.19155636
F       23.16548885      23.73131178      13.54055898       0.00853228       0.01010060       0.08405820
H       11.31768380      14.54871519      21.93113149      -0.03545453       0.07436800       0.11859470
H       10.56575277      14.66795645      20.33748559      -0.03252516       0.06411734      -0.02421468
H       10.68477507      13.09417858      21.14966307      -0.03105863       0.04418220       0.03580488
H       13.03183445      14.74407071      20.09382890      -0.10950302      -0.27002196       0.05473248
H       12.10633968      13.06709524      17.16985507      -0.04865934       0.11873042      -0.04505712
H       10.96415999      14.05615958      18.11062761       0.08224982      -0.01594778      -0.03369449
H       12.63656771      14.62848184      17.85734295      -0.05959233      -0.08225749      -0.03008442
H       13.04352448      10.55277627      23.35003050       0.07991401      -0.04825583       0.09048024
H       15.47975536      10.95910530      23.75866126       0.01952038      -0.04834442       0.04287148
H       16.60208024      12.76041052      22.44762542       0.01297002       0.03637518      -0.02152220
H       14.65330594      12.48575394      18.91223577       0.21118738       0.22397545      -0.24036274
H       15.29593891      13.30870033      17.48244666      -0.07571587      -0.03122166       0.14937091
H       16.63121585      11.27798506      17.93710373       0.04144594      -0.10732736      -0.04109787
H       17.63140178      12.70816356      18.23079223       0.06130177      -0.03093051      -0.01718639
H       16.94146466      11.81576021      19.59057424       0.02086308      -0.02042786       0.01802256
H       15.89470966      15.20071872      23.18555486       0.08005497       0.09529230       0.06520602
H       16.99175701      16.50272894      22.69853663      -0.03913536      -0.11852204       0.13251570
H       14.79657664      16.47428709      24.94446218      -0.00655628      -0.07050298       0.05460948
H       16.02294394      17.70614789      24.63794041       0.02260356       0.01740308       0.07886742
H       14.31305860      18.14641685      24.66039026      -0.05053136       0.05633592       0.06378941
H       12.77064376      17.23133100      22.88990716      -0.06643455       0.00738532       0.02751270
H       13.43323736      16.45031905      21.45586103      -0.07017399      -0.06017377      -0.04653262
H       13.39215912      15.57950596      22.98973696      -0.04977857      -0.05081776       0.00895619
H       14.33820182      19.11658448      22.35328756       0.13027195      -0.17684133      -0.02471195
H       15.09424279      18.22008428      21.02297773       0.01823107       0.07319716       0.19845065
H       18.68190909      19.91095315      22.42498045      -0.10432324       0.13706668       0.03078847
H       17.60676205      22.54522999      21.75657791       0.27879179      -0.20253842      -0.03897700
H       19.68644302      22.83077315      19.62488137       0.20300518      -0.23382985       0.07059706
H       22.54832121      22.16129428      19.54227041      -0.07695524       0.23578818      -0.16130512
H       23.69553814      23.04065924      17.95607774      -0.18992394       0.30196237      -0.01324228
H       23.21993976      26.03730288      18.27108677       0.05539894      -0.09445064      -0.01035590
H       25.70459363      26.16099583      18.13379691       0.08836123       0.06890679       0.00472267
H       25.79196587      24.41886190      17.88234469       0.06468067      -0.06896084       0.00142643
H       25.08064673      25.44841294      16.64540019       0.04377251       0.00609073      -0.08773055
H       24.61405782      24.02321514      20.08698402       0.06597797      -0.07123589       0.01257461
H       24.55733326      25.76709748      20.32521901       0.07673741       0.04116595       0.08152642
H       23.07795491      24.81646731      20.42057564       0.08615232      -0.00547532       0.06329079
H       20.59133227      23.89662545      14.41944615       0.04064207      -0.02936206      -0.05601984
H       20.79624821      23.00730831      12.90150659       0.06242798       0.03217281       0.08368306
H       19.07957804      21.92979793      14.34334585       0.29996050       0.00843060       0.18955593
H       20.23143128      21.84829590      15.68107413      -0.10732142      -0.02754165      -0.30162179
H       20.42002004      16.17882534      15.62474082       0.00432072      -0.15807602       0.11070402
H       19.94569997      14.54444708      16.08923860       0.06549592       0.03668214       0.04475553
H       21.64545799      14.89345416      15.72499758      -0.03935595       0.02620180      -0.00763633
H       20.28169755      13.13644047      12.79476666       0.04502855      -0.09533220       0.01861737
H       21.65230271      13.14549618      13.93459243      -0.03879698      -0.01746620      -0.03822161
H       20.01068586      12.80128819      14.50345310       0.05208667      -0.04264548      -0.05801871
H       20.68988552      14.60346384      11.22941956       0.01441968      -0.08523674      -0.04789768
H       19.16196938      15.30395271      11.80066634       0.00625064       0.00552643      -0.00268584
H       20.39150816      16.33118475      11.05650471       0.03598403      -0.03734893      -0.02598635
H       22.83456009      15.94039011      13.94907359       0.04031972       0.00118553       0.00888228
H       22.73753512      14.77971748      12.61315072       0.03355281      -0.04568948      -0.00497263
H       22.70187198      16.51425309      12.28616582       0.02858786       0.01056840      -0.04469673
H       22.27810714      20.05115686      15.19040945      -0.02364109       0.00902113      -0.30735093
H       22.18628973      19.35387556      13.55776982       0.05501249       0.22422318       0.16297674
H       22.71374851      21.50652975      12.54332932      -0.04069965       0.05074578       0.06173416
H       23.87956191      21.19761927      13.84153302      -0.12794050       0.04676950      -0.03945545
H       22.28869209      25.25244351      14.76877677       0.03989524      -0.03057876       0.13683978
H       21.30809889      25.43985532      16.25192832       0.16586913       0.05617945      -0.07838315
H       22.96382767      26.06224211      16.16997312      -0.05809075      -0.03172803      -0.07383632
H       21.11048776      20.16695066      20.15462016       0.01542473      -0.06992120       0.08431188
H       19.35267100      20.42689413      20.22132965       0.23489974      -0.01044684       0.06135632
H       21.16555937      20.62296794      17.77395206      -0.22896346      -0.12002094       0.15866158
H       20.22095953      18.35636192      18.52494079      -0.03579808       0.07001283      -0.08476591
H       19.72735173      18.87536856      16.88582937       0.01519788       0.02565040       0.29099123
H       17.50306403      19.77925804      16.56920754      -0.04298950       0.05025949       0.22871981
H       16.42415016      19.92257205      17.98813437       0.09429508       0.01794524      -0.03924804
H       17.83470230      21.63775783      18.97811817      -0.02362966       0.02400008      -0.10827344
H       17.50226275      22.12783421      17.29195678       0.04177059      -0.12272640       0.14051624
H       20.49492621      23.26949716      23.90412909      -0.20614781      -0.04044541      -0.02359827
H       18.74947209      23.61812465      23.80305540       0.05050222      -0.01129579       0.02249666
H       19.13503426      21.93967562      25.59057723       0.04318388      -0.03436699       0.03028491
H       19.99506641      20.89967841      24.44315011      -0.00802197       0.06025582       0.06659102
H       17.06030186      21.74949967      24.25852440       0.01232461      -0.08358922      -0.04503338
H       17.64760789      20.11961896      24.63435294      -0.06521228       0.05337188      -0.01172638
H       16.69950598      15.04616786      16.73577865      -0.00414030      -0.05377050      -0.05374678
H       17.81954431      17.21600445      16.46298267      -0.00793444       0.01868797      -0.01400152
H       17.46788171      18.04735749      20.62900787       0.01316886       0.03160987      -0.08178703
