151
Properties=species:S:1:pos:R:3:MACE_forces:R:3 energy:=T -221.329388911246=T gnorm:=T 0.008864020966=T xtb:=T 6.7.1=T (edcfbbe)=T MACE_energy=-90873.1885110102 pbc="F F F"
C       10.73773268      14.13860179      20.16491477       0.29029324      -0.18503136      -0.19773753
N       11.89261270      12.52833237      22.15142590      -0.26235799      -0.02782754      -0.15092996
O       12.42884740      12.63697587      19.19889911      -0.11216423       0.02357747       0.13110401
C       12.20801588      13.73340480      20.08421722      -0.07035268       0.18171190      -0.03330026
N       15.49731850      14.09035457      19.96764918      -0.26897070      -0.02172242      -0.06024950
O       15.66987063      19.29034675      22.39884596      -0.07618281      -0.52669568       0.45479059
C       12.27623028      12.93946546      17.82972318       0.03501029       0.01163146       0.15778377
N       18.22286816      21.75858589      22.00019972      -0.34983413       0.22824454      -0.14823257
O       18.95149232      19.34774499      13.96052215       0.79978350      -0.08316379      -0.08692972
C       12.71860508      13.28078129      21.43996999       0.34157250       0.16501401      -0.17489186
N       19.39895262      22.12459343      22.66587389      -0.78352854      -0.01718022       0.66807193
O       23.42942422      21.49084014      16.72495524      -0.27236123       0.36765153      -0.26227668
C       12.27068907      12.09588848      23.34155826       0.03543132      -0.08618312       0.17971041
N       21.77798531      22.26260916      19.90730618      -0.02428097      -0.56320981       0.30439222
O       20.91077927      24.08979937      18.91268499       0.38212671      -0.22352446       0.10273318
C       13.50080358      12.39901680      23.90328219      -0.01182793       0.01673945      -0.03271234
N       22.97205816      23.67615980      16.97401498       0.09564256       0.28768832       0.40436554
O       19.51287495      21.08325240      18.01354438       0.01324023      -0.13002588       0.14788510
C       14.37092895      13.18159767      23.16734967      -0.09457435      -0.08699756      -0.13969593
N       21.01316721      20.23897758      14.28871681       0.21205115       0.29888008       0.02964935
O       21.61756803      22.49041021      22.58667357      -0.43168803      -0.23485293      -0.16372994
C       13.99388435      13.63392271      21.90302681      -0.16759478      -0.24645102       0.30246436
N       23.01406502      16.07122304      11.66652883      -0.01342049       0.03046524       0.06044334
O       15.63490537      21.23055437      21.27247110       0.28846085      -0.34460617       0.35612942
C       14.91440250      14.49131815      21.15020045      -0.00603525       0.46126498       0.26673579
N       18.34361633      18.69639516      18.87723314      -0.06142635      -0.16979496      -0.19965514
C       15.51798435      12.74103798      19.45961894       0.14844660      -0.50343553       0.00180766
C       16.74058069      11.97680868      19.96658948      -0.14694918       0.11187629      -0.09366326
C       15.31936121      15.76513460      21.48092739      -0.13151681      -0.37438338       0.13282955
C       14.95944778      16.52941413      22.71553372      -0.13330083       0.06441747      -0.12110567
C       13.89112197      17.63899520      22.56360277       0.19332377       0.18806145       0.05528336
C       13.46902186      18.09505438      23.96274870       0.09125149      -0.03520747      -0.17614784
C       12.67681988      17.11023607      21.80136851       0.23483937       0.17559214      -0.00701986
C       14.44567278      18.84719766      21.79564395      -0.46181776      -0.10879865      -0.35553835
C       16.17238149      20.45410503      22.03023470       0.17068693       0.91318574      -0.64630483
C       17.50842902      20.70470306      22.71446010      -0.16905069      -0.00473755       0.16801588
C       20.57758599      22.16842577      22.02264090       0.98908470       0.22522775      -0.47468498
C       20.54195076      21.84595530      20.52694882      -0.06786230       0.14379102      -0.05858109
C       21.85487565      23.32863378      19.10216378      -0.21928205       0.40234964      -0.30354660
C       23.21342344      23.51151134      18.41166975       0.03058907      -0.01696427       0.26600608
C       24.01750155      24.64747475      19.06552578       0.04178410      -0.12784817      -0.06311852
C       25.37364510      24.80093663      18.38089954      -0.25566308       0.07344545      -0.04948419
C       24.22124809      24.33034555      20.54725612      -0.25630502       0.16752954      -0.10451004
C       23.05206311      22.56130412      16.23693656       0.42971515      -0.87787126      -0.14485033
C       22.65581706      22.58270969      14.74704738      -0.10398115      -0.03260546      -0.44405944
C       21.13763788      22.67058400      14.56841647       0.13968626      -0.12174695       0.11258912
C       20.48523353      21.36814588      15.02111104      -0.39298328       0.20391138       0.23153359
C       20.17811417      19.29363081      13.82681498      -1.32948094       0.26740929       0.19695000
C       20.78480189      18.20429456      13.10651425       0.03697205      -1.03056881      -0.63071384
C       21.11520408      17.25102686      12.44854857      -0.02181794       0.83738794       0.57047358
C       21.54564391      16.11783977      11.63311140      -0.19842959      -0.22473619      -0.13262276
C       23.65145819      17.26506771      11.14775082       0.11983756       0.02175425      -0.02348262
C       23.61375996      14.88802596      11.08661060      -0.04748018       0.02032201       0.02134423
C       20.94841965      14.85773898      12.27984948       0.02551130      -0.01773929      -0.05556591
C       20.94422188      16.30904136      10.22472288       0.13041436      -0.06138637       0.09404205
C       22.44675480      20.07328370      14.37109484       0.49407680      -0.23802448       0.12225004
C       23.17934338      21.35887616      13.98782796      -0.01453388       0.01180676       0.35224007
C       22.46637207      24.96697154      16.55233446      -0.35274045       0.34621483      -0.09668492
C       20.29612037      20.36319394      20.23235717      -0.13990440       0.33140333      -0.39047843
C       20.26975741      20.10625421      18.71390046       0.29797727      -0.26789026       0.00513574
C       19.71642809      18.70428381      18.42121642       0.15320986       0.23859323       0.00913546
C       17.55565170      19.62964278      18.08913117       0.00918623       0.40730039      -0.22866370
C       18.12361259      21.03057020      18.29395790      -0.33459091      -0.01516798      -0.03736847
C       19.27198246      22.51597119      24.06203232       0.24907135      -0.11921034       0.15849791
C       18.59494520      21.39922457      24.85348514      -0.13466841       0.24865306      -0.15113111
C       17.26149187      21.05060180      24.19549950       0.25056856      -0.25551142      -0.02443534
C       16.20645277      16.17729320      20.44274304       0.11591248      -0.31363616      -0.30809331
C       16.30412192      15.10045843      19.52492550       0.18606930       0.66006371       0.04786712
C       17.11919414      15.18692717      18.40204718       0.02921634      -0.21826063      -0.18269563
C       17.80606009      16.36184646      18.17483527       0.08374150       0.07229345      -0.07939468
C       17.70869652      17.43714503      19.06780948       0.01886280       0.14363041       0.34964127
C       16.93918744      17.33409795      20.20876653       0.04198716      -0.05175474      -0.18214536
F       23.25258683      23.69719334      14.12145606      -0.00023590       0.00653122       0.08338722
H       10.14693069      13.27540502      20.45530174      -0.03221720       0.03667068       0.02794100
H       10.61869864      14.91944795      20.90905055      -0.06958565       0.07109675       0.03320063
H       10.39090354      14.51349214      19.20642677      -0.02302542       0.06445210      -0.02997885
H       12.81155652      14.58927605      19.73948008      -0.12243193      -0.22361352       0.10485114
H       12.66257985      12.07696278      17.29098243      -0.04548246       0.09386783      -0.08332551
H       11.22800915      13.09157718      17.56152297       0.04647980       0.01903179      -0.03162007
H       12.85328093      13.83131389      17.55905879      -0.03117221      -0.05060351      -0.02645212
H       11.54543872      11.48489889      23.86052238       0.04455172      -0.04251369       0.13388921
H       13.76710168      12.03297043      24.88144926       0.00427512      -0.02036582       0.04406784
H       15.34668382      13.44034078      23.55152537       0.02200886       0.02752621       0.01016825
H       14.60205755      12.23522500      19.77152763       0.22109113       0.19892149      -0.18187569
H       15.52506524      12.78420192      18.36624686      -0.11155572      -0.02113784       0.18414130
H       16.73564302      11.94317223      21.05542143       0.00262646      -0.02238980      -0.03053428
H       16.72554404      10.95907560      19.58479014       0.05793509      -0.05549798       0.00976254
H       17.65590865      12.46582804      19.64015610       0.04858729      -0.04208130       0.02325348
H       14.58305492      15.82213645      23.45546766       0.06150392       0.10706410       0.04663781
H       15.86451941      16.99209941      23.11302367      -0.06497656      -0.12178987       0.13014488
H       14.32934500      18.46307246      24.51593890       0.01529721       0.01534346       0.08702005
H       12.73301141      18.89286976      23.89681381      -0.05459616       0.06595276       0.02901197
H       13.02794437      17.26888191      24.51484486      -0.01725984      -0.04354202       0.05181249
H       12.28619591      16.22463365      22.29577450      -0.04995903      -0.05250849       0.02390990
H       11.89308274      17.86218307      21.75912184      -0.10435413       0.03499222       0.01141893
H       12.95232820      16.84217179      20.78420052      -0.03414908      -0.05100987      -0.03478067
H       13.73042401      19.67519516      21.79947910       0.10883108      -0.17574014       0.00332862
H       14.65372593      18.57970988      20.75486842      -0.00788728       0.08507473       0.17143072
H       18.10842048      19.78947191      22.65547381      -0.11201011       0.14969701       0.00674286
H       17.60689394      22.56703113      21.89057397       0.21629865      -0.20723379       0.00329111
H       19.75410541      22.45650368      20.07279438       0.24563710      -0.29412416       0.10526652
H       22.59545862      21.69936152      20.07736384      -0.09785909       0.20146192      -0.12834187
H       23.78932090      22.58594788      18.50821733      -0.13869241       0.26306274       0.01621256
H       23.44701311      25.57659026      18.99138857       0.04761414      -0.09805985      -0.02337592
H       25.26910660      24.99356766      17.31600105       0.04228082       0.01278462      -0.04673663
H       25.92506083      25.62363298      18.82873814       0.06818267       0.01814255      -0.00841802
H       25.95471075      23.88902782      18.50283119       0.04766668      -0.04036508      -0.00543552
H       24.77549876      23.40209722      20.66800657       0.05520944      -0.07708551       0.02367782
H       24.78822835      25.12862915      21.01826228       0.05383542       0.02024716       0.05653351
H       23.27278543      24.23155575      21.07095572       0.06649885      -0.02097812       0.07616038
H       20.71609700      23.48565674      15.15407802       0.04168799      -0.00253385      -0.06082046
H       20.92966564      22.85137760      13.51130879       0.06611271       0.00033339       0.10105618
H       19.40722262      21.40213271      14.84685976       0.29474583      -0.02048569       0.14602155
H       20.65047165      21.22919472      16.09492178      -0.09722930       0.01448862      -0.26977839
H       23.72121732      17.27185828      10.05012284      -0.04026553       0.03902624       0.05864414
H       23.10232870      18.14701954      11.46884338       0.09303823       0.00806916      -0.02827484
H       24.66299607      17.31808374      11.55194631      -0.02279726       0.06204571      -0.08171833
H       24.68576813      14.93454806      11.27657672      -0.03831199      -0.07311503      -0.04751260
H       23.22443864      13.99315674      11.56174245       0.03793886      -0.05788092      -0.04510505
H       23.46588887      14.81350287       9.99839417       0.01564456      -0.02531139       0.05258999
H       21.51335967      14.59712216      13.17269872      -0.03874653       0.00441654      -0.02758555
H       19.91615511      15.05531073      12.56440159       0.06397331      -0.06840776      -0.05063403
H       20.95952336      14.02527035      11.57927013       0.02201160      -0.02967063       0.04696034
H       21.24727102      15.49004542       9.57747686      -0.00083701      -0.04231744      -0.05469265
H       19.85938448      16.32089358      10.29015688      -0.01614580       0.00619716      -0.04638808
H       21.27244238      17.24897374       9.78953225      -0.01184777       0.00535662      -0.03334901
H       22.72074702      19.81435765      15.40064203      -0.06637308      -0.01313131      -0.33766516
H       22.75076141      19.26204620      13.70837922      -0.04096907       0.15859636       0.12914858
H       23.05108008      21.56762998      12.92368202      -0.04172137       0.01427811       0.12034510
H       24.24245451      21.23259775      14.19455266      -0.08516886       0.03411806      -0.04171277
H       22.28962078      25.00233728      15.48582929       0.11923741      -0.04535454       0.09867556
H       21.53764006      25.17344563      17.08751586       0.19202777       0.04623972      -0.08312857
H       23.19437818      25.73775612      16.79786873      -0.03868480      -0.00227715      -0.07973516
H       21.08802663      19.76024466      20.67600036       0.00008454      -0.05366128       0.06525522
H       19.33782205      20.06212665      20.64749214       0.18598798       0.00218209       0.06734906
H       21.27883882      20.20640650      18.29639386      -0.19334782      -0.08750505       0.12326131
H       20.28260161      17.95314302      18.97423678      -0.00135659       0.04692163      -0.08575147
H       19.80493305      18.50304588      17.33958517       0.04439805       0.00574438       0.15546181
H       17.57806008      19.36943075      17.01497735      -0.02964070       0.04218797       0.18231554
H       16.52021789      19.60715452      18.43358182       0.10150518       0.01942312      -0.04096314
H       17.92465141      21.35187856      19.32378078       0.02096838      -0.03211152      -0.13850183
H       17.66577129      21.74026824      17.60261612      -0.02306413      -0.10261355       0.15575823
H       20.27617315      22.72186834      24.43180778      -0.21742053       0.01224928      -0.06984385
H       18.67378472      23.43238936      24.11529066       0.06037454      -0.04461816       0.01396278
H       18.43653649      21.72626626      25.88047509       0.04213882      -0.05638741       0.00234044
H       19.24196029      20.52055620      24.86386132       0.01182057       0.04212864       0.04948704
H       16.58014348      21.90332599      24.25647800      -0.00429017      -0.06298056      -0.02473342
H       16.79752647      20.19936940      24.69112578      -0.06448325       0.05931387      -0.00335277
H       17.20956609      14.36474140      17.70785151      -0.00753917      -0.03425461      -0.00944704
H       18.42446390      16.45414279      17.29413484       0.01057122       0.01554284      -0.01871811
H       16.93063456      18.15953014      20.89756607       0.01033644       0.00014015      -0.00107735
