151
Properties=species:S:1:pos:R:3:MACE_forces:R:3 energy:=T -221.331027481326=T gnorm:=T 0.008888248359=T xtb:=T 6.7.1=T (edcfbbe)=T MACE_energy=-90873.21569713314 pbc="F F F"
C       11.16649469      13.77571501      20.39825897       0.30686064      -0.14079034      -0.22776465
N       12.66057143      12.26335376      22.24381756      -0.28371061      -0.06855935      -0.14010484
O       12.84905393      12.37395704      19.27831720      -0.10895548       0.04586878       0.15078328
C       12.64698916      13.47698088      20.16160562      -0.09397815       0.14249316      -0.03799865
N       15.92890566      14.15366513      19.76968403      -0.30676855      -0.06825607      -0.05206172
O       15.86892560      19.34991487      22.22796427      -0.05566633      -0.53522046       0.44153774
C       12.55568960      12.63687933      17.92410657       0.05058203       0.07489463       0.15316733
N       18.37838195      21.86559609      21.80406040      -0.32732997       0.20820321      -0.09910622
O       18.32020656      19.52815965      13.99646674       0.94673035      -0.16694814       0.03364171
C       13.33110338      13.09653428      21.46062418       0.30497440       0.21016516      -0.21063579
N       19.58222463      22.21135528      22.42813307      -0.76978309      -0.06069842       0.68373622
O       22.80100964      21.67139731      16.59164318      -0.12127417       0.31639147      -0.30937800
C       13.19230756      11.88264768      23.39064006       0.15945489      -0.02717368       0.22005550
N       21.78393173      22.58356550      19.54887145       0.13480818      -0.71046796       0.48360821
O       20.84780293      24.42953516      18.64943985       0.38659976      -0.13390590      -0.00473267
C       14.42815774      12.32919738      23.83770586      -0.07940531      -0.02736295      -0.07797127
N       22.72594425      23.90879274      16.55892607       0.20607325       0.20835986       0.27079832
O       19.35920963      21.43667895      17.75163366       0.03275117      -0.10996245       0.13939022
C       15.13507088      13.19664814      23.02615690      -0.12446092      -0.14543467      -0.04069947
N       20.42792181      20.37020937      14.16849919       0.17534073       0.27046514      -0.12894812
O       21.79285064      22.59231305      22.24865475      -0.41191356      -0.20508417      -0.13428025
C       14.59690098      13.59141289      21.80146310      -0.15790238      -0.24344158       0.26711452
N       22.31968346      15.66944875      12.75170532       0.02716265       0.05146197      -0.00008498
O       15.81335500      21.27881580      21.08616046       0.28638737      -0.34341690       0.37340903
C       15.36111461      14.52673454      20.96786120      -0.01915399       0.47101423       0.25563856
N       18.39915201      18.93426975      18.53139061      -0.03305058      -0.17287330      -0.16108626
C       16.00163833      12.80468403      19.26401432       0.14584739      -0.45331593       0.03994485
C       17.19647778      12.05878321      19.85343003      -0.12844580       0.10178200      -0.11414275
C       15.67025026      15.83650075      21.26094801      -0.13094863      -0.40319020       0.16440258
C       15.27988620      16.58188660      22.49810109      -0.09408734       0.03340067      -0.09657509
C       14.15329887      17.63443566      22.35754301       0.18470288       0.21663203       0.04358153
C       13.69014810      18.03435036      23.76096319       0.08815261      -0.02527178      -0.19553611
C       12.97977884      17.06150448      21.56541974       0.23200758       0.15818898      -0.00137663
C       14.64763025      18.89396720      21.63027650      -0.46202397      -0.13184194      -0.35316606
C       16.36596984      20.50932679      21.84031022       0.11404681       0.95692799      -0.64688756
C       17.72011342      20.75681446      22.48645675      -0.14661438      -0.01256145       0.14308385
C       20.72208058      22.31023359      21.72364546       0.93737884       0.29794263      -0.54861564
C       20.59505172      22.09953010      20.21245445      -0.06239823       0.16243486      -0.02175301
C       21.80253930      23.66795417      18.76867289      -0.23203951       0.38539305      -0.21447921
C       23.10293837      23.86356608      17.97571485      -0.04317885      -0.08066892       0.28394151
C       23.90955686      25.07226528      18.46832872       0.05914858      -0.19091549      -0.01836211
C       25.26316474      25.13338472      17.76165414      -0.27472042       0.09424246      -0.09815076
C       24.11828594      24.94262291      19.97724487      -0.24236452       0.12263803      -0.10586201
C       22.59060965      22.71491210      15.96794646       0.23436567      -0.67475751      -0.07516716
C       22.24214951      22.62639337      14.46829535      -0.08427993      -0.10659421      -0.45238791
C       20.75937070      22.81653099      14.13696275       0.11193442      -0.12638766       0.12551180
C       19.93199548      21.64526720      14.64722008      -0.37960864       0.27536351       0.17551346
C       19.54681372      19.37298754      13.96453960      -1.35670484       0.46517769      -0.05446680
C       20.12016246      18.08249043      13.68662800       0.01768287      -1.22853434      -0.16165209
C       20.47398528      16.94720034      13.49683872      -0.11287181       0.98374578       0.11245586
C       20.95028327      15.58313478      13.27826683      -0.14280865      -0.20162085       0.12063854
C       22.42580572      16.41468484      11.51276363       0.05149575       0.04287192      -0.08285212
C       23.01751587      14.40497023      12.64290720      -0.06139143       0.02153859       0.08437159
C       20.95126993      14.90866804      14.65980051       0.02987874      -0.06403010      -0.06950355
C       19.94359497      14.87670003      12.34883343       0.12321178       0.07332795       0.02120117
C       21.84129829      20.12202060      14.36351366       0.43437876      -0.30849348       0.18015948
C       22.69423679      21.28880303      13.87098129      -0.07649086       0.07967244       0.39728414
C       22.31183363      25.19017853      16.02816689      -0.15101815       0.32191943      -0.12339230
C       20.37036069      20.63082066      19.84166379      -0.23519129       0.30213579      -0.39391192
C       20.22774220      20.46500665      18.31769961       0.34965176      -0.33264096       0.00356186
C       19.73090060      19.04880566      17.98226102       0.11151533       0.35330572       0.01131294
C       17.50179227      19.86351551      17.86701780      -0.01721473       0.44365532      -0.20950316
C       18.00207399      21.28038535      18.13420745      -0.35013429      -0.05511385      -0.00794161
C       19.52416584      22.50852516      23.85179734       0.26498920      -0.17018631       0.11142456
C       18.91023997      21.32608424      24.59971224      -0.14778362       0.28863572      -0.09646150
C       17.54492682      21.00368484      23.99622341       0.25220212      -0.28114871      -0.07384664
C       16.48626744      16.29792011      20.18623122       0.10366351      -0.25606634      -0.34822164
C       16.63778523      15.21498419      19.28191429       0.18054455       0.66237356       0.01475946
C       17.41637698      15.34184703      18.13566400       0.01327658      -0.23970398      -0.16727552
C       18.01037785      16.55857505      17.87201077       0.10208682       0.15097599      -0.08496119
C       17.85586954      17.64152318      18.74934871       0.00923714       0.15405253       0.28733622
C       17.12229795      17.50219847      19.90997559       0.01031909      -0.08498484      -0.13016903
F       22.97130120      23.62579625      13.79556531       0.03947684       0.03062492       0.02687742
H       11.06891104      14.53577099      21.16698206      -0.07090356       0.06096483       0.02596597
H       10.69689096      14.13781192      19.48859877      -0.03630620       0.05131641      -0.03522290
H       10.67109899      12.86910136      20.73086866      -0.02562212       0.01998979       0.03492462
H       13.14441535      14.36399754      19.73619552      -0.08862398      -0.21822641       0.12750343
H       12.89977986      11.76414600      17.37522955      -0.06579469       0.06910572      -0.10963155
H       11.48383777      12.77420695      17.75756346       0.06625516      -0.00556820      -0.03153304
H       13.09304641      13.52654960      17.57280766      -0.05124096      -0.06661600      -0.00890687
H       12.59645532      11.19640740      23.97647634       0.03999136      -0.02798380       0.09933029
H       14.81951545      11.99872317      24.78538381       0.03590689      -0.00422121       0.06389321
H       16.10535856      13.56459709      23.32443513       0.03353645       0.04599025      -0.01580613
H       15.07458051      12.28250608      19.51195682       0.23053691       0.18676462      -0.17873945
H       16.08660067      12.85510841      18.17578862      -0.11918873      -0.01327533       0.15037959
H       17.28475860      11.07868994      19.39468606       0.05825311      -0.10691501       0.00583347
H       18.11301913      12.61679109      19.67860950       0.07062214      -0.02761999      -0.00637743
H       17.06771398      11.93031916      20.92597585       0.00905464      -0.00746826       0.01465438
H       14.94469965      15.85132385      23.23626111       0.06314186       0.12553734       0.03784943
H       16.16236147      17.08853025      22.89388287      -0.08258007      -0.13284670       0.13289052
H       13.30781724      17.16969306      24.29636778      -0.02401140      -0.05903678       0.06370101
H       14.51830747      18.45485343      24.32490995       0.02364438       0.02327705       0.10385411
H       12.89803719      18.77718309      23.70132064      -0.05240760       0.06018982       0.03622285
H       12.18276664      17.79448436      21.47659540      -0.13010911       0.03840485       0.01848073
H       13.29826153      16.77552085      20.56570213      -0.03630585      -0.03800625      -0.02603591
H       12.59007957      16.17982918      22.06779983      -0.03940082      -0.05567170       0.01629159
H       13.90441002      19.69563318      21.68730116       0.12194066      -0.18046099      -0.00721098
H       14.83816760      18.68190601      20.57392225       0.00395227       0.06700821       0.17011080
H       18.33626772      19.86135312      22.34322067      -0.11752967       0.14043648       0.01687350
H       17.74748533      22.66743120      21.76601783       0.18840124      -0.17360062      -0.00899988
H       19.76472251      22.71321280      19.84908216       0.24508877      -0.27517739       0.05952276
H       22.61336274      22.01544522      19.65389387      -0.20290498       0.32795087      -0.22030148
H       23.72038109      22.96601694      18.09525739      -0.12292392       0.30065189       0.00518089
H       23.34573770      25.98844109      18.27983814       0.03421523      -0.11311214      -0.00199638
H       25.81571312      26.00660824      18.10145594       0.07075494      -0.00783957      -0.03208400
H       25.84831646      24.24269623      17.99038999       0.00197593       0.01263830      -0.00379653
H       25.14849391      25.19766159      16.68031071       0.07278971      -0.01988254       0.01540914
H       24.70222996      25.78259419      20.34294933       0.04967279       0.02861535       0.05609944
H       23.16649340      24.93017445      20.50451382       0.07325521       0.00451370       0.08110644
H       24.64980854      24.02426218      20.21846669       0.05066378      -0.05507027       0.01778463
H       20.35668577      23.72509922      14.58316164       0.06323015      -0.05514130      -0.05870439
H       20.67944424      22.89714425      13.04959836       0.05929694       0.02118122       0.12490383
H       18.89950200      21.73914821      14.30263545       0.23966366       0.00274137       0.18706637
H       19.92844415      21.65116346      15.74347492      -0.07117082      -0.00958005      -0.29632037
H       22.09411948      15.84241723      10.63355587       0.00350904       0.06022890       0.04831012
H       21.83574593      17.32696148      11.58016030       0.08648802      -0.04345889      -0.08189636
H       23.47118669      16.68743583      11.36673039      -0.06244910       0.00529770      -0.07515319
H       24.03831374      14.61561066      12.32818143      -0.01250903      -0.08071512       0.01285072
H       23.05662904      13.91383128      13.61114818       0.04064830      -0.07806243      -0.05566212
H       22.56876965      13.72211196      11.90695981       0.03972032      -0.00632214       0.03143742
H       20.01467977      15.12449951      15.16803815       0.00692164      -0.07273754      -0.00413898
H       21.05039880      13.83092671      14.56486473       0.01970993      -0.04628551       0.02654205
H       21.76972695      15.30029265      15.25833977      -0.00096932      -0.00682029       0.00638045
H       20.25270575      13.85303311      12.16098177       0.02300349      -0.09180373      -0.00852254
H       18.96435966      14.86523213      12.81993663      -0.03734382      -0.02653517      -0.03444128
H       19.86171326      15.40466538      11.40180237      -0.02663205      -0.03629947      -0.00033757
H       22.03691022      19.97032589      15.43083970      -0.00165094      -0.06704759      -0.35393230
H       22.12060812      19.21733922      13.82175973      -0.05406682       0.18585110       0.12318788
H       22.62471606      21.37987187      12.78537948      -0.03019549       0.04070767       0.11126308
H       23.73197392      21.09675034      14.14391758      -0.06664645       0.05299955      -0.05987022
H       23.18129138      25.82181047      15.84978926      -0.08771149       0.01857767      -0.03140972
H       21.78141439      25.07242105      15.09208957       0.11162628       0.05948992       0.11195551
H       21.65141262      25.66527183      16.75516934       0.06769841      -0.06093895      -0.13827411
H       21.21543107      20.03108037      20.17919044       0.00805563      -0.04610642       0.06714898
H       19.46071084      20.26814926      20.31382340       0.19310626       0.00373160       0.05169168
H       21.18898223      20.65437378      17.82791591      -0.19299775      -0.11440979       0.16458488
H       20.37703882      18.30868619      18.45215997       0.03057200      -0.00505728      -0.05950556
H       19.75578858      18.90690535      16.88791270       0.03288526      -0.01476726       0.15806252
H       17.46417464      19.67852207      16.77782734      -0.02431416       0.02171492       0.19562788
H       16.49679745      19.75540944      18.27677425       0.08402296       0.01565159      -0.03243908
H       17.87191099      21.51578749      19.19717442       0.01987625      -0.02318249      -0.15518378
H       17.44827926      22.00636770      17.53624355       0.00620033      -0.11150207       0.13125747
H       20.54250221      22.71296078      24.18082313      -0.21116365       0.00891064      -0.05140790
H       18.91074008      23.40459225      23.99403694       0.06034918      -0.02969110       0.02556016
H       18.80860275      21.57388878      25.65567837       0.04812119      -0.04757644      -0.00526893
H       19.56846387      20.46096658      24.50646887       0.01508236       0.03177522       0.05733535
H       16.86120889      21.84232651      24.14793709      -0.01956058      -0.04652684      -0.02104363
H       17.11458087      20.11666637      24.45895464      -0.04824882       0.07148953       0.00123167
H       17.54817242      14.51595169      17.45151674       0.00169537      -0.01707342       0.00291216
H       18.59981163      16.68840084      16.97529107      -0.01101305      -0.01887388      -0.01386994
H       17.07112259      18.33596448      20.58694079       0.02611258      -0.00924181      -0.01791793
