151
Properties=species:S:1:pos:R:3:MACE_forces:R:3 energy:=T -221.329417763692=T gnorm:=T 0.009471759603=T xtb:=T 6.7.1=T (edcfbbe)=T MACE_energy=-90873.21291047015 pbc="F F F"
C       10.52909359      14.07220129      20.93769501       0.26215461      -0.14621274      -0.24456909
N       12.01965433      12.31784383      22.55726157      -0.31974947      -0.04187592      -0.11169970
O       12.01994862      12.65398132      19.59658935      -0.10281245      -0.01515541       0.16353528
C       11.96367966      13.69034648      20.57571898      -0.07738895       0.20084982      -0.04749134
N       15.22451237      14.13028838      19.97813942      -0.31907544       0.02350089       0.00555327
O       15.58744123      19.21036564      22.59286954      -0.00555200      -0.61568162       0.41674218
C       11.68428900      13.05542588      18.28688168       0.11744150      -0.01490331       0.18730880
N       17.88508761      21.86369930      22.06704715      -0.38211010       0.24693312      -0.15103588
O       19.77656181      18.37806266      13.70216388       0.81782492       0.20426310      -0.09454368
C       12.69989610      13.15689600      21.79052915       0.34391092       0.18845664      -0.20729740
N       19.06794570      22.32981009      22.65035707      -0.79171313       0.03664669       0.73625474
O       23.27113094      21.55360330      16.86434271      -0.27537609       0.24565957      -0.32903518
C       12.59258691      11.80635475      23.63170929       0.11096212      -0.07948030       0.19183148
N       21.34413088      22.39688702      19.81169858       0.02778057      -0.73146944       0.40687857
O       20.51310302      24.31364497      18.96820178       0.34356146      -0.20723417       0.06647131
C       13.88685278      12.11828324      24.02101441      -0.04101633      -0.00908538      -0.02484876
N       22.52561939      23.67594514      16.94326609       0.00613951       0.15570732       0.27796386
O       19.31740252      21.06085221      17.91200999      -0.02924834      -0.03129854       0.07634688
C       14.60644791      12.99001702      23.22584723      -0.08479381      -0.06096566      -0.12912343
N       21.52791364      19.69658458      14.29765490       0.17144994       0.25820228       0.04399847
O       21.26689119      22.75362634      22.45350410      -0.47499143      -0.24236194      -0.13636256
C       14.02362351      13.52105137      22.07451063      -0.15660096      -0.27387285       0.29524637
N       23.50493944      16.75111112      10.07448265       0.03484054       0.03303622       0.02043212
O       15.25830103      21.19949970      21.60961029       0.40468517      -0.35064716       0.34268388
C       14.80573436      14.44965076      21.25200117       0.03797649       0.43954477       0.28390842
N       18.00717284      18.76857419      18.84504915      -0.10951617      -0.11833077      -0.24684408
C       15.15341090      12.81900183      19.38269575       0.14096422      -0.51763631      -0.00986643
C       16.37383209      11.97806573      19.75358592      -0.12392607       0.14513025      -0.12044527
C       15.25724224      15.70100197      21.60765587      -0.14165547      -0.39824682       0.17386256
C       15.03970524      16.39622373      22.91405498      -0.16621727       0.04967437      -0.12501043
C       13.92844106      17.47369343      22.93266547       0.19138236       0.17810534       0.07217170
C       13.69466539      17.90777409      24.38222983       0.08115829      -0.02694384      -0.21186357
C       12.63360125      16.91717529      22.34522685       0.21619290       0.15324573      -0.03644635
C       14.34005392      18.69544277      22.10419767      -0.48545485      -0.09915102      -0.26064405
C       15.93549910      20.43813251      22.26587878       0.01062072       1.01247989      -0.66126180
C       17.28946295      20.79296642      22.85871878      -0.20888291      -0.01511531       0.17570568
C       20.21083618      22.38220442      21.95234201       1.04343788       0.23360323      -0.48742584
C       20.12448760      21.99835260      20.47226625      -0.02986195       0.15582873      -0.09856661
C       21.43973590      23.51772133      19.09170866      -0.14615045       0.42854299      -0.28293922
C       22.78785654      23.69413808      18.38314314       0.02738460       0.02754690       0.32244851
C       23.53409875      24.94380259      18.87404893       0.04518191      -0.12315443       0.03967316
C       24.94811707      24.97052996      18.29551815      -0.32401733       0.02414463      -0.04664003
C       23.57603280      24.93102228      20.40326668      -0.25442729       0.09464042      -0.16676420
C       22.77955745      22.53226122      16.29401830       0.50070588      -0.62055992      -0.04363374
C       22.41829354      22.40635480      14.80319654      -0.14415528      -0.08753638      -0.41273728
C       20.93508336      22.03980417      14.65429765       0.19641766      -0.05301558       0.13552637
C       20.70820796      20.59071635      15.07766238      -0.54362376       0.06629229       0.25052039
C       20.98059725      18.65053028      13.65586707      -1.31583774      -0.15206206       0.24364269
C       21.89391003      17.84422159      12.88716797       0.35578792      -0.87191744      -0.69391034
C       22.53833008      17.09201123      12.20245320      -0.32575902       0.70324969       0.60980264
C       23.40559758      16.20115054      11.43498598       0.09118379      -0.19952228       0.01762707
C       22.22655643      16.89015640       9.40651971      -0.12339262       0.01871211      -0.07300764
C       24.45769607      16.08714233       9.20974963      -0.01539877      -0.00905077       0.05378223
C       24.77923671      16.22354677      12.12506484      -0.05909278      -0.03653019      -0.01949856
C       22.80802754      14.78147917      11.50948085       0.02974544       0.10888269      -0.09025994
C       22.94846731      19.93850979      14.41231553       0.46512143      -0.11367605       0.12189649
C       23.28704263      21.38459007      14.06039499       0.01089308       0.03162521       0.29564000
C       21.90662500      24.86171056      16.38590188      -0.20730290       0.46341059      -0.18088343
C       19.88313663      20.50298955      20.25049303      -0.12020980       0.27483436      -0.44837635
C       19.98024640      20.13310610      18.75785020       0.30329057      -0.34874372       0.12992772
C       19.42008554      18.72065898      18.53608521       0.24165567       0.25801711      -0.06566370
C       17.32432882      19.64962773      17.91298382       0.12177185       0.33179594      -0.17158471
C       17.90743091      21.05219309      18.06740025      -0.27536042      -0.05203793      -0.08013667
C       18.99250459      22.76963898      24.03614877       0.24898636      -0.09825140       0.08303051
C       18.44234157      21.64097790      24.90315429      -0.17842967       0.24146923      -0.10678572
C       17.09984288      21.18092310      24.33848349       0.29016251      -0.23784301      -0.05489037
C       16.00895470      16.18040602      20.49620523       0.11864978      -0.35875730      -0.41292645
C       15.97316029      15.16851714      19.50140241       0.19550023       0.66798817       0.09844247
C       16.62821560      15.33049728      18.28470476      -0.00162658      -0.20464372      -0.19051809
C       17.30532034      16.50910241      18.05594881       0.09925914       0.05854466      -0.09517245
C       17.35445377      17.51281540      19.03367238      -0.01474395       0.16446587       0.34422137
C       16.72955522      17.34461546      20.25039889       0.03106055      -0.02410268      -0.14751733
F       22.64736682      23.62753897      14.13733014       0.01890583      -0.04214648       0.12990936
H       10.53972519      14.82134893      21.72367876      -0.06083776       0.05168058       0.02737701
H       10.01235308      14.47977746      20.07325701      -0.02619474       0.06216553      -0.00057062
H       10.00834584      13.18839259      21.29299175      -0.03042173       0.03849792       0.02151002
H       12.49908102      14.57180232      20.18507128      -0.10288835      -0.24691327       0.12510825
H       12.31632432      13.88740759      17.95992888      -0.02249981       0.00888462      -0.02827157
H       11.86961769      12.18969763      17.65684360      -0.04937296       0.07189893      -0.09143051
H       10.63633673      13.34480656      18.20592017      -0.03079147       0.01521877      -0.05261921
H       11.97811246      11.12277996      24.20170602       0.07120286      -0.03440855       0.10929935
H       14.31566030      11.68644032      24.91133365       0.00327034      -0.00836881       0.02549981
H       15.62429463      13.25792237      23.47188883      -0.00195965       0.01699439       0.00680498
H       14.24132849      12.32420319      19.72514213       0.22795675       0.21101283      -0.21064415
H       15.09375667      12.93723077      18.29774068      -0.11170856      -0.01395296       0.16919121
H       16.32084691      11.01241818      19.25983367       0.04753699      -0.10775966      -0.00223331
H       17.28801372      12.48183036      19.44603603       0.04124651      -0.03778634       0.01337393
H       16.40803452      11.81985544      20.82943011       0.00976506      -0.01336278       0.00907568
H       14.77907774      15.64804616      23.66377406       0.06651019       0.10402462       0.04761366
H       15.97314504      16.87465738      23.21328543      -0.02730841      -0.11033542       0.14412591
H       14.61436262      18.29238331      24.81550262       0.01837199       0.01216530       0.08099988
H       12.93772965      18.68727800      24.42648870      -0.05539805       0.06518629       0.04704647
H       13.35428855      17.06566246      24.97908550      -0.01697886      -0.04951569       0.05951981
H       11.83196146      17.64701868      22.42153548      -0.09969294       0.03847050       0.02842109
H       12.76987977      16.66409572      21.29689190      -0.04480160      -0.05161350      -0.03656981
H       12.34016145      16.01824500      22.88182297      -0.03736597      -0.04755590       0.01439928
H       13.58717750      19.48677204      22.16208571       0.10874430      -0.18014490       0.00789415
H       14.47210370      18.42135748      21.05348008      -0.02084516       0.10159199       0.16212491
H       17.94492052      19.91752439      22.79858899      -0.11013404       0.14711700      -0.00165946
H       17.20848747      22.62382985      21.96951667       0.22917548      -0.20095245       0.00185497
H       19.32196066      22.58807476      20.01759554       0.22440954      -0.26112041       0.10830350
H       22.15933599      21.82311275      19.97381158      -0.16010525       0.31533735      -0.19383289
H       23.41091772      22.81684054      18.58594137      -0.14784363       0.29298327      -0.03482668
H       22.99214560      25.83864471      18.55480420       0.03349293      -0.16092576       0.03862657
H       25.46217818      25.87467295      18.60930439       0.08432212       0.03830234      -0.01585452
H       25.51469489      24.11030541      18.64913604       0.03115218      -0.02173837      -0.01050635
H       24.92421155      24.94242017      17.20801976       0.07246517       0.00391143      -0.04338086
H       24.06391256      24.03117254      20.77375662       0.04416464      -0.03200030       0.02032863
H       24.12359951      25.79595102      20.76635443       0.06042687       0.03744217       0.06472656
H       22.56882051      24.96340167      20.81956695       0.13341481      -0.00035200       0.05439021
H       20.30818447      22.67879975      15.27630675       0.05681831       0.01907024      -0.07231401
H       20.65821420      22.17723557      13.60692445       0.03620817      -0.00365284       0.09142625
H       19.66189376      20.31068987      14.93211479       0.31419860       0.07200040       0.10950894
H       20.95400291      20.48389744      16.13977122      -0.09963472      -0.02846061      -0.23502991
H       21.50130121      17.33784459      10.08436739       0.01162306      -0.03152637      -0.13088813
H       22.35552595      17.55225191       8.55071921      -0.06204855      -0.03782753       0.00424574
H       21.82438660      15.93322633       9.03950100       0.00974069       0.07519340       0.03686573
H       24.52445585      16.66277998       8.28709813       0.05347255      -0.07930954       0.01101191
H       25.44017207      16.07258712       9.67197248       0.03768608      -0.04952766      -0.07104982
H       24.16514435      15.05851782       8.94681955       0.05308373       0.05981677       0.00867962
H       25.28345123      17.16370687      11.91705940       0.00378347       0.00621222      -0.00579565
H       24.64277948      16.13049128      13.20044782       0.04208902      -0.04317008      -0.04346290
H       25.39483176      15.39547618      11.78664218       0.06455123      -0.02099178      -0.03084079
H       22.78050044      14.45118242      12.54467491      -0.00992751      -0.04375890       0.00257299
H       21.79236393      14.77025682      11.12018412       0.03417927      -0.04142062       0.01212228
H       23.41904880      14.08870574      10.93678678       0.02109203      -0.05671212      -0.01957503
H       23.25389800      19.74487479      15.44648936      -0.02404234      -0.01620693      -0.30763180
H       23.48205119      19.26404562      13.74262611      -0.08585573       0.12267796       0.13513879
H       23.12436326      21.55558721      12.99261525      -0.02392268       0.00248069       0.17090405
H       24.33901785      21.57162167      14.28649472      -0.12363241       0.00268539      -0.05168216
H       21.23811464      24.61818996      15.56746162       0.11394574       0.06801779       0.11175822
H       21.31767358      25.33557074      17.16978082       0.10418199      -0.10038991      -0.13493950
H       22.66796304      25.55390875      16.02235446      -0.12686206      -0.02177495      -0.02641339
H       20.62697149      19.92383337      20.79688161       0.01291981      -0.07202395       0.05422416
H       18.88991307      20.24013403      20.60658435       0.21451991       0.01744006       0.06977995
H       21.02477381      20.17563959      18.42939982      -0.20946319      -0.06987522       0.09131859
H       19.90812536      18.01481164      19.20898353       0.01479331       0.03558853      -0.07358871
H       19.61541415      18.41300368      17.49299444       0.00683497       0.03220134       0.16864234
H       17.44091625      19.30933301      16.86709726      -0.05282843       0.06126395       0.18059655
H       16.26289836      19.67324757      18.16105381       0.05118078       0.00509796      -0.05696645
H       17.62660601      21.45060131      19.04989849       0.00594623      -0.03098127      -0.10756357
H       17.52702696      21.71710392      17.29007664      -0.01957379      -0.06800599       0.15487819
H       19.99834225      23.06142109      24.33568372      -0.20734784      -0.01158742      -0.03861274
H       18.33248827      23.64268403      24.08721205       0.06644920      -0.04640821       0.01748315
H       18.32200405      21.99456275      25.92603977       0.04271762      -0.05269677       0.02186566
H       19.14760744      20.80889221      24.90303532       0.02337716       0.03379250       0.04843353
H       16.36796774      21.98951775      24.40572724      -0.00796935      -0.05734723      -0.02141367
H       16.72190492      20.32248829      24.89164958      -0.06750995       0.04381904      -0.00140476
H       16.60583480      14.55937908      17.52916013       0.00383238      -0.02429250      -0.02045797
H       17.80838107      16.66000830      17.11083946      -0.00239259       0.01423809      -0.00030884
H       16.81950982      18.12499431      20.98676304      -0.00537069      -0.01353766      -0.01149165
