151
Properties=species:S:1:pos:R:3:MACE_forces:R:3 energy:=T -221.329469420630=T gnorm:=T 0.004539183247=T xtb:=T 6.7.1=T (edcfbbe)=T MACE_energy=-90873.21537246462 pbc="F F F"
C       11.59390486      13.54997162      20.36639193       0.28364776      -0.18308415      -0.21893375
N       13.35442333      11.96350405      21.93998340      -0.29803510      -0.03797339      -0.09630622
O       13.20621867      12.24624121      19.03350759      -0.09010579      -0.00218002       0.17334853
C       13.04972991      13.31169277      19.96998042      -0.09709240       0.18245611      -0.06112538
N       16.04566739      14.43197638      19.32627939      -0.32244730      -0.09251842       0.11471395
O       15.88703421      19.33478946      22.38265025       0.08017237      -0.47990842       0.34882487
C       12.67300267      12.49214944      17.75038736       0.05509150       0.03118555       0.18079109
N       17.90634413      22.24204412      21.86047856      -0.33466148       0.25249514      -0.07444236
O       18.51781087      19.95309922      13.54974350       0.70669095      -0.29555702       0.17746616
C       13.87808721      12.90954037      21.17471566       0.30316341       0.23322974      -0.15899564
N       19.05222355      22.77917297      22.45867492      -0.87046148      -0.01376640       0.69089349
O       22.91045780      21.27073976      17.12441404      -0.01164255       0.22962830      -0.36211350
C       14.02029245      11.54271724      23.00044164       0.08176849      -0.09396953       0.14132848
N       21.58568930      22.83184976      19.81268586      -0.15030238      -0.51537772       0.45508970
O       21.13186791      24.55311032      18.42331118       0.29784533      -0.16599241       0.07210642
C       15.25840240      12.04731548      23.36672054       0.00123089       0.04600324      -0.05862470
N       23.25161104      23.47208878      16.85868529       0.28012018       0.26404920       0.30953937
O       19.09572429      21.98218038      17.71079730      -0.05628737      -0.08233254       0.11492861
C       15.81225681      13.03729388      22.57614351      -0.11354464      -0.13006457      -0.05186471
N       20.60774180      20.24856134      14.38886990       0.24467812       0.15201066       0.01903390
O       21.23423707      23.29146976      22.37516403      -0.44798576      -0.25835488      -0.08430278
C       15.12564546      13.48912521      21.44922207      -0.12200637      -0.26739293       0.19453680
N       21.56935351      15.29104847      12.67101026       0.04609167       0.05304096       0.01567353
O       15.38632810      21.24099775      21.31015782       0.36729499      -0.26619814       0.30311500
C       15.70272701      14.57620318      20.65443550      -0.02060118       0.37987267       0.30153628
N       17.99347713      19.52076492      18.43310255      -0.19862716      -0.35436758      -0.13040941
C       16.17890440      13.18285284      18.61677749       0.24696987      -0.45496183      -0.06183838
C       17.60010794      12.63385756      18.73336406      -0.20118222       0.09616513      -0.07066233
C       15.97308638      15.85757203      21.08208579      -0.02530087      -0.34620101       0.08778202
C       15.76028228      16.43629801      22.44434834      -0.12460680      -0.03475816      -0.06484678
C       14.51460315      17.33893856      22.61041747       0.10198271       0.26013324       0.07046135
C       14.29716254      17.58653473      24.10595838       0.08839018      -0.00273395      -0.20895738
C       13.28333014      16.65778118      22.01419545       0.20594038       0.20366139       0.00084416
C       14.69607261      18.69216760      21.90669656      -0.56379120      -0.21312841      -0.30078024
C       16.12421681      20.57803742      22.00403405      -0.07782083       0.83786824      -0.59212412
C       17.42712265      21.07973996      22.60542214      -0.19855473      -0.05279857       0.11047929
C       20.22038412      22.90007879      21.80511761       1.19800278       0.27699434      -0.43638156
C       20.24396966      22.60231308      20.30306653      -0.03401448       0.12090092      -0.12722343
C       21.90755745      23.71354082      18.86138312      -0.08802018       0.30386101      -0.29335301
C       23.33833927      23.55222080      18.32106138      -0.05897739      -0.10284876       0.23137838
C       24.28895433      24.62685438      18.86309708       0.00784806      -0.11172653      -0.04353648
C       25.69903665      24.41185201      18.31396404      -0.23157959       0.13908928      -0.06879192
C       24.31429746      24.53954397      20.38985691      -0.18852978       0.21540165      -0.15813338
C       22.99555434      22.24839679      16.37606078       0.16401156      -0.82437385       0.01925253
C       22.85745124      22.02201445      14.85738612      -0.03050850      -0.17446187      -0.42552374
C       21.53363963      22.52448587      14.27448085       0.08287294      -0.10261378       0.12903193
C       20.36725044      21.63976221      14.70415438      -0.30543147       0.40997377      -0.04822217
C       19.62586134      19.50253823      13.85428325      -1.19812207       0.61093662      -0.23572300
C       19.93178077      18.10918791      13.64834710      -0.20944764      -1.13124641      -0.34061771
C       20.03511662      16.93478331      13.40232201       0.05737015       0.99226509       0.31078300
C       20.20319626      15.50224804      13.16852767      -0.17048149      -0.26051816       0.15038507
C       21.87407775      16.02501965      11.45962932       0.02010385       0.09042442      -0.09923820
C       21.97176513      13.90620124      12.53343155      -0.03440046       0.02555198       0.02065424
C       20.02164709      14.82122606      14.53648195      -0.04473061       0.01909302      -0.11104002
C       19.09004085      15.03881039      12.20702822       0.14592112       0.02373936      -0.01504466
C       21.83864359      19.69730336      14.90679061       0.36876359      -0.39001975       0.20507950
C       23.03884468      20.54463786      14.49271325      -0.12352427       0.15266340       0.43572298
C       23.11863923      24.71725893      16.12969347      -0.25565665       0.37315657      -0.27282883
C       19.83644096      21.17715027      19.92012787      -0.25555522       0.30182716      -0.33701254
C       19.86808260      21.00283100      18.39324892       0.38319849      -0.35689414      -0.02912915
C       19.37469323      19.60372856      18.01683786       0.28198447       0.39021474      -0.10739022
C       17.18478400      20.45189464      17.66996828       0.03554606       0.32662267      -0.19179814
C       17.70103640      21.86549842      17.94557682      -0.24316145      -0.01308714      -0.03030696
C       18.93021679      23.15960888      23.86045456       0.23513394      -0.10342952       0.12212178
C       18.48027704      21.95874344      24.68849519      -0.15492282       0.22360331      -0.12799525
C       17.19252896      21.38985238      24.09632998       0.38696499      -0.17586215       0.00110104
C       16.52214495      16.53976084      19.96013031       0.15342912      -0.31981842      -0.40310733
C       16.55181039      15.62028312      18.88257817       0.12664427       0.74365713       0.01645245
C       17.03061966      15.99292546      17.63009213       0.00876945      -0.13400216      -0.14713122
C       17.47675595      17.28577988      17.46070008       0.09024645       0.10710684      -0.11575535
C       17.48359544      18.19152565      18.53110669       0.02963842       0.19472850       0.27989989
C       17.02837206      17.82164556      19.77618032      -0.00780968      -0.05654671      -0.18507151
F       23.90853038      22.70764581      14.21403658       0.01759602       0.05004948       0.05914360
H       11.17510159      12.62919725      20.76066462      -0.04108486       0.02753383       0.01056311
H       11.55178704      14.31964795      21.13079320      -0.04970710       0.06014415       0.05239454
H       11.01426601      13.87938112      19.50841284      -0.04834280       0.04552785      -0.01410350
H       13.46323049      14.23299590      19.52754171      -0.07394400      -0.25607220       0.13639595
H       11.58096092      12.44618349      17.74992032       0.05077906       0.02752761      -0.04157617
H       12.99606183      13.46872163      17.37340258      -0.02584655      -0.04715915      -0.03699092
H       13.06633265      11.70380391      17.11202339      -0.08761017       0.09494984      -0.08396907
H       13.53142784      10.76979870      23.57727905       0.07036762      -0.03501160       0.10427382
H       15.76911721      11.67587597      24.24020484       0.02592789      -0.02559307       0.05051385
H       16.77903871      13.45702838      22.81220719       0.00792442       0.03569033      -0.00498955
H       15.46493022      12.46422491      19.02254143       0.13039850       0.23705099      -0.22218270
H       15.93148006      13.35923052      17.56678980      -0.08703662      -0.06798143       0.15955944
H       17.70029351      11.73841201      18.12751559       0.06462931      -0.09024703      -0.03069676
H       18.31977610      13.37427088      18.39176684       0.05798751      -0.02656695      -0.01146175
H       17.82353191      12.38284826      19.76724854       0.02248925      -0.00950959       0.03697441
H       15.66185044      15.61787158      23.15882527       0.05623074       0.12295643       0.04378964
H       16.63951019      17.02380923      22.71335085      -0.01782883      -0.13063830       0.14155095
H       15.18306082      18.03666705      24.54568210       0.02427467       0.02462159       0.09093675
H       13.45397213      18.25463657      24.26279952      -0.06670038       0.05818738       0.05062275
H       14.09185718      16.64999734      24.61722953       0.00463955      -0.06005125       0.04729155
H       12.39375482      17.25911843      22.18201161      -0.10323372       0.00744807       0.02004881
H       13.40698127      16.51436905      20.94378619      -0.05798876      -0.04818618      -0.03796581
H       13.14103745      15.68479920      22.47734403      -0.04822128      -0.05891483      -0.00070629
H       13.84277253      19.34865332      22.10576247       0.14103051      -0.14801050      -0.02289069
H       14.77853464      18.56249876      20.82288371       0.01191661       0.06069622       0.23960371
H       18.18255318      20.29170187      22.51743534      -0.14361733       0.13576606       0.01020660
H       17.16655455      22.94356481      21.80937770       0.23599084      -0.17382136      -0.01721989
H       19.59385377      23.32573235      19.79754050       0.13891994      -0.23237548       0.10409023
H       22.28611982      22.19157754      20.15485220      -0.03256043       0.25190105      -0.21335089
H       23.71945834      22.57641023      18.64213997      -0.10127846       0.32568964      -0.06819498
H       23.91585271      25.61705376      18.58669503       0.03034590      -0.12553777       0.00744236
H       26.08018779      23.44794720      18.64420119       0.04728139      -0.06840192       0.02069394
H       25.71809221      24.42468124      17.22787190       0.04673750      -0.00302770      -0.06150414
H       26.36306089      25.18875949      18.68183729       0.08369894       0.02209466       0.00891143
H       23.32325508      24.68324536      20.81448839       0.06493893      -0.00590703       0.08128119
H       24.68585554      23.56922596      20.71074909       0.04119635      -0.08095123       0.03905210
H       24.97212120      25.30584484      20.79015139       0.04612367       0.00268252       0.07435024
H       21.32132239      23.54231927      14.59423792       0.05456889      -0.02297838      -0.05826820
H       21.63307141      22.51320328      13.18654545       0.03752668       0.01173148       0.09850805
H       19.45785782      21.94114675      14.17858284       0.19150864      -0.04365518       0.25897071
H       20.19226953      21.75441859      15.77963860      -0.05503929      -0.05072161      -0.23137215
H       21.51878126      17.04983823      11.54992136       0.12072258      -0.09324523      -0.11350908
H       22.95637722      16.04108678      11.33260179      -0.05641974       0.02818612      -0.05286958
H       21.43113287      15.57526844      10.55767986       0.01882685       0.05429361       0.05064739
H       21.44479302      13.37897279      11.72404532       0.01877942      -0.02103100       0.06451580
H       23.03678660      13.89343145      12.30449896      -0.04201487      -0.08358580       0.00488748
H       21.81978339      13.37356367      13.46670718       0.03060257      -0.08651740      -0.04148847
H       19.15761579      15.24855054      15.04014785      -0.00379486      -0.06310932      -0.00825410
H       19.85756175      13.75460823      14.41656988       0.01674561      -0.08476531       0.03417251
H       20.90036844      14.99137566      15.15171316       0.01892932       0.00715270       0.01925306
H       19.14594846      15.57672861      11.26349822      -0.01823583      -0.02543454      -0.00572377
H       19.18100972      13.97233129      12.01673991      -0.01119883      -0.04653398      -0.01391755
H       18.11831647      15.23446732      12.65279304      -0.02865929      -0.00809762       0.00662446
H       21.78982891      19.66880052      16.00079141       0.02955795      -0.07390979      -0.30207169
H       21.95821380      18.68073203      14.52891592       0.05300156       0.24288077       0.18048713
H       23.18119339      20.49404759      13.41201449      -0.02956316       0.08839142       0.06779128
H       23.93051335      20.15622742      14.98417968      -0.04767649       0.07383978      -0.06642557
H       22.13198493      25.14605893      16.32180072       0.17779838       0.01890481      -0.03717436
H       23.87333201      25.41698195      16.47632967      -0.02567899      -0.02064647      -0.06333542
H       23.26438652      24.56836308      15.06659797       0.01074955      -0.01686435       0.16273610
H       20.53450610      20.46498545      20.35897600       0.01047164      -0.06671975       0.07339807
H       18.83196361      20.96351703      20.27211000       0.31090572      -0.07582217       0.03398330
H       20.88807699      21.14902802      18.02320042      -0.33145213      -0.14666576       0.13117270
H       19.95597651      18.84530130      18.54213206      -0.01496993       0.04777348      -0.04988968
H       19.49433501      19.45401024      16.92890362       0.03954885       0.00537113       0.22584565
H       17.22689677      20.24489000      16.58377728      -0.02827783       0.04711943       0.19443859
H       16.14733225      20.37754058      18.00288237       0.10719595       0.02103387      -0.07170017
H       17.46523587      22.14077680      18.98005785      -0.00900122      -0.01726088      -0.11579076
H       17.23626677      22.58290016      17.26757123      -0.00251730      -0.10385419       0.13471267
H       19.90342531      23.52806532      24.18326467      -0.22805878      -0.02326257      -0.06830916
H       18.19429092      23.96752832      23.93296621       0.04391280      -0.03388636       0.02698294
H       18.31768521      22.26883686      25.71959815       0.04633851      -0.04109033       0.02370122
H       19.26110115      21.19754847      24.67292887       0.00038912       0.04682941       0.05154494
H       16.38355236      22.11863570      24.18740931      -0.01297765      -0.05623516      -0.03129380
H       16.89839592      20.47791519      24.61383400      -0.06780255       0.04682047      -0.02014527
H       17.05161703      15.29766564      16.80467391      -0.00079312      -0.04137883      -0.03712200
H       17.84012257      17.60816575      16.49417057       0.01137342       0.00042250      -0.00248233
H       17.09820242      18.52792485      20.58379084       0.02065692       0.04742594      -0.03279119
