151
Properties=species:S:1:pos:R:3:MACE_forces:R:3 energy:=T -221.329572213957=T gnorm:=T 0.009908200689=T xtb:=T 6.7.1=T (edcfbbe)=T MACE_energy=-90873.25664381438 pbc="F F F"
C       11.45367808      13.57790948      20.62899846       0.27424685      -0.13549753      -0.27386830
N       13.32271901      11.90522653      21.90819420      -0.32089914      -0.06228309      -0.07182035
O       12.95668159      12.50104955      19.01161171      -0.04422914      -0.03747683       0.21498763
C       12.87673050      13.42951073      20.09254127      -0.12664536       0.16863233       0.00628289
N       15.95683878      14.38369096      19.23448765      -0.32791913      -0.04331740       0.07898530
O       16.14971376      19.20455045      22.39814077       0.01316566      -0.53284157       0.31518526
C       12.45575228      12.97857081      17.78378604       0.05923655       0.04763713       0.16142126
N       18.35129574      21.97720519      21.96076317      -0.34289505       0.26609337      -0.03266697
O       18.28637047      19.70602285      14.34638600       0.64131829      -0.14071132      -0.16635887
C       13.80103354      12.89488843      21.17012034       0.27875671       0.28250034      -0.19947036
N       19.53444215      22.43852392      22.54820945      -0.80893401      -0.06208000       0.72521801
O       23.06085511      21.59282476      16.38524232      -0.25097715       0.18417687      -0.29132979
C       14.07329218      11.38434902      22.86220423       0.12181103      -0.08614834       0.14036080
N       21.79737633      22.69775386      19.68460274      -0.08198104      -0.58617019       0.46003701
O       21.00590539      24.54797189      18.67750859       0.29535837      -0.13998231      -0.04478951
C       15.35269436      11.83481483      23.15056385      -0.02128157       0.01047700      -0.03853096
N       22.79946965      23.81172075      16.56122479       0.18677427       0.43899843       0.37229643
O       19.42834723      21.78905022      17.80884151      -0.09664493      -0.08877386       0.11942174
C       15.86069046      12.86758680      22.38508136      -0.08419168      -0.08268392      -0.04233449
N       20.40548005      20.50345977      14.15500047       0.16690009       0.21775459      -0.16943091
O       21.72481421      22.91048617      22.35733601      -0.45671500      -0.25628689      -0.09549051
C       15.08858970      13.41503336      21.36118387      -0.12893200      -0.26029443       0.17753759
N       19.81970781      14.77151114      13.87813191      -0.02754158       0.03090285       0.01638687
O       15.77511370      21.19591862      21.43514616       0.34929208      -0.35404459       0.30277061
C       15.64889182      14.51537051      20.57064890       0.00466391       0.37921390       0.36393696
N       18.24581046      19.34585127      18.45340607      -0.23431838      -0.26410099      -0.16868884
C       15.98827316      13.14552427      18.49589091       0.18755234      -0.49061817      -0.09079480
C       17.36393741      12.48732485      18.58623534      -0.17010120       0.12808046      -0.05395270
C       15.99387350      15.76931292      21.02296694      -0.06605025      -0.38495622       0.08263987
C       15.78906475      16.32804862      22.39359323      -0.09811730      -0.00899610      -0.01524240
C       14.60923866      17.32240049      22.53811011       0.14817099       0.21941492       0.10928053
C       14.35021536      17.55757730      24.02900335       0.09769085       0.00319326      -0.21807732
C       13.35044125      16.75744171      21.88096227       0.25174254       0.26207016       0.02721677
C       14.92437545      18.66818284      21.87254641      -0.53489376      -0.10087387      -0.31014572
C       16.46882710      20.44707965      22.08770179      -0.02702935       0.95146600      -0.52697034
C       17.80734824      20.83940526      22.69731145      -0.20949938      -0.06148972       0.07730520
C       20.66941116      22.56121848      21.83990159       1.19406877       0.26626212      -0.53295786
C       20.56335364      22.31864244      20.33456745      -0.09569246       0.17574224      -0.13087571
C       21.88600416      23.70906729      18.81379643      -0.12597808       0.36586544      -0.22304462
C       23.17217703      23.69510032      17.97322465       0.06950232      -0.06181594       0.24675033
C       24.19808427      24.73381587      18.45565038      -0.00971216      -0.14052484      -0.05038400
C       25.43727680      24.69633908      17.56343186      -0.21411509       0.10598881       0.01571846
C       24.58365657      24.41454228      19.89997988      -0.22803193       0.21734694      -0.07229947
C       22.74490483      22.66965612      15.87073287       0.34842147      -0.98311195      -0.13723789
C       22.32177757      22.67274553      14.38895303      -0.09280318      -0.08880130      -0.53618740
C       20.83368640      22.93796788      14.16489624       0.14636093      -0.12491411       0.13281697
C       20.00658410      21.78283591      14.70944290      -0.39338400       0.27851520       0.18022655
C       19.47957732      19.52547476      14.09389538      -1.08334478       0.44802903       0.22101028
C       19.95790197      18.22311490      13.70890942      -0.01983644      -1.24880562      -0.10459416
C       20.19981607      17.06754392      13.46592286      -0.02465567       1.07862190       0.10671264
C       20.60697734      15.71862710      13.07774252      -0.03987049      -0.14477081      -0.24692675
C       20.00353511      14.92259842      15.30683767      -0.05030205       0.04846240       0.12180999
C       19.93946927      13.38215870      13.49136351       0.02656380       0.02895731      -0.03179628
C       20.26485299      15.57757925      11.58414962       0.06116267      -0.05828760       0.14701412
C       22.13346870      15.60508397      13.27612309      -0.12646852      -0.04802081       0.05030877
C       21.82228772      20.19277766      14.17254108       0.40691448      -0.38809423       0.07735698
C       22.67844209      21.35815895      13.69151582      -0.07007480       0.05207479       0.50993614
C       22.32509449      25.10571077      16.11607417      -0.36251946       0.38489794      -0.19210271
C       20.24245172      20.87375915      19.93868312      -0.26518588       0.34714284      -0.27778763
C       20.18819134      20.74765064      18.40504359       0.34716076      -0.36720061      -0.02368809
C       19.61900851      19.38096430      18.00760373       0.29603909       0.32228375      -0.17720267
C       17.46071200      20.34663332      17.75017372       0.07831433       0.32314437      -0.21128341
C       18.03888822      21.71595688      18.09602511      -0.21458713      -0.00237957       0.01197419
C       19.46856448      22.79861244      23.95721125       0.18244280      -0.16193394       0.08366999
C       18.94753432      21.61930341      24.77456991      -0.12350203       0.24278320      -0.10352060
C       17.61505520      21.14803859      24.19441397       0.34010285      -0.23040864      -0.03304751
C       16.57666828      16.44150840      19.91171324       0.11205835      -0.36831038      -0.44150614
C       16.52905070      15.55043780      18.81006884       0.15554977       0.72089101       0.03908673
C       17.00512491      15.92559503      17.55761530       0.00563233      -0.14607135      -0.15275170
C       17.54787496      17.18485534      17.41370567       0.14034799       0.11057338      -0.15744919
C       17.65267669      18.04983016      18.51101686       0.00784279       0.13194130       0.41274018
C       17.18272138      17.68110754      19.75285121       0.05144700      -0.00829319      -0.23033246
F       23.05863319      23.67143599      13.72118871       0.04952533       0.07141139       0.05538857
H       11.45516904      14.24757989      21.48326370      -0.03791723       0.04913779       0.07192263
H       10.79670107      13.98760721      19.86694173      -0.04189749       0.04896385      -0.02105807
H       11.09138240      12.60262508      20.93955415      -0.04906562       0.04927146       0.01499630
H       13.25212736      14.40614139      19.74665425      -0.07650753      -0.26572954       0.08544312
H       11.37911287      13.15052015      17.82193241      -0.01950796       0.01273929      -0.03548683
H       12.95805742      13.90628772      17.48917945      -0.02284084      -0.02045564      -0.01939477
H       12.66837980      12.20191248      17.05591454      -0.04309090       0.05520930      -0.11793746
H       13.61943300      10.57632892      23.41803193       0.07078576      -0.05587569       0.11254866
H       15.92982535      11.38685006      23.94384887       0.01612081      -0.01871216       0.03148660
H       16.85644761      13.25033030      22.55899862      -0.00507324       0.01735897      -0.00298528
H       15.22528108      12.47484342      18.89710614       0.16442465       0.24630641      -0.23260514
H       15.74153160      13.36222775      17.45237575      -0.06157094      -0.06621160       0.18908957
H       18.13276508      13.16590307      18.22143971       0.04774738      -0.04076551      -0.00169029
H       17.58988371      12.23127749      19.61962942       0.01232220      -0.01523814      -0.00290122
H       17.37905363      11.58015932      17.98978109       0.06500758      -0.09288540      -0.03374491
H       15.60517894      15.50017637      23.08192907       0.06708363       0.13575762       0.03064074
H       16.69967035      16.84206602      22.70848994      -0.05181391      -0.15347520       0.12321223
H       14.07158252      16.62681754      24.51510831      -0.00210863      -0.06556452       0.05190959
H       15.24178324      17.95043137      24.51023303       0.02273917       0.01274403       0.09216646
H       13.53972249      18.27012819      24.16310513      -0.05210172       0.06033267       0.05759801
H       12.50740617      17.42564496      22.02815226      -0.12442364       0.04813167       0.03695349
H       13.50000136      16.62657372      20.81453961      -0.03593532      -0.05483247      -0.10326386
H       13.11015641      15.79492389      22.31698640      -0.06508977      -0.15874410       0.03081962
H       14.12259876      19.39032073      22.05430394       0.11416104      -0.16379314      -0.00503653
H       15.03578832      18.55042084      20.79044925      -0.00308927       0.07515744       0.24089563
H       18.50375241      20.00138186      22.58805598      -0.11888780       0.14876848       0.02178676
H       17.65173814      22.72129837      21.92911121       0.23360483      -0.19645217      -0.04648657
H       19.79189222      22.99327920      19.94561737       0.20951122      -0.25908040       0.05834030
H       22.57382290      22.06853936      19.81038619      -0.03425976       0.22071270      -0.17935537
H       23.63188107      22.70518673      18.06715202      -0.13349658       0.35531323      -0.01271622
H       23.74606541      25.72912561      18.43571431       0.02613796      -0.10546051      -0.00720657
H       26.19510956      25.37102591      17.95154223       0.07354564       0.03668646      -0.01377636
H       25.85111760      23.68928119      17.54190457       0.02684404      -0.03892978       0.00048182
H       25.20450288      24.98683088      16.54305530       0.03057836       0.00083568      -0.08445376
H       25.04711342      23.43237811      19.96257151       0.05592256      -0.07891968       0.01766172
H       25.29526603      25.15189208      20.26122785       0.05309850      -0.01399167       0.06723329
H       23.71422964      24.42820123      20.55438882       0.08741771      -0.01709275       0.06972393
H       20.50977232      23.85030897      14.66057113       0.03454975      -0.02245154      -0.05041369
H       20.67773058      23.04972414      13.09043440       0.05441928       0.02300400       0.05335713
H       18.95050800      21.92654076      14.46412008       0.27658673      -0.01954851       0.19214396
H       20.09301661      21.75920964      15.80213435      -0.10835089      -0.04070604      -0.32044035
H       19.95805091      15.97646486      15.57606602      -0.02578329      -0.15302791       0.09494415
H       19.18971671      14.40526877      15.81406551       0.07880692       0.03865937       0.05100875
H       20.95375607      14.50278506      15.66995848      -0.02842425       0.04524763      -0.01391695
H       19.22921184      12.81014897      14.08608881       0.03698444      -0.04619640      -0.04120818
H       19.67919247      13.25994965      12.44490334       0.02920368      -0.10758481      -0.00156167
H       20.94258720      12.96335874      13.66661736      -0.06153071       0.00056749      -0.04033726
H       20.76837661      14.71704639      11.15573000       0.00919341      -0.08768473      -0.06663209
H       19.19069210      15.47504248      11.46021559      -0.01413716       0.00355503       0.00341972
H       20.59290056      16.46688527      11.05490940       0.04616192      -0.00529314      -0.03981745
H       22.41310499      15.85134547      14.29774780       0.01538741      -0.02454548      -0.01094947
H       22.46104536      14.59387500      13.05017812       0.04172232      -0.04940793      -0.02078596
H       22.64063337      16.29248256      12.60421086       0.02564781       0.02396046      -0.01677330
H       22.12441957      19.93591858      15.19395970      -0.01219553       0.01703519      -0.29714831
H       21.99313822      19.32932179      13.52777368       0.05853984       0.19948077       0.17236149
H       22.53834226      21.51864664      12.62358330      -0.03044975       0.07880324       0.01133107
H       23.72525609      21.11876980      13.87392167      -0.07893174       0.04966645      -0.01637611
H       21.33999705      25.29960612      16.54440847       0.16906789       0.05554743      -0.07425573
H       23.00700697      25.87350741      16.47066352      -0.02921526       0.01120524      -0.05768651
H       22.28607593      25.16582218      15.03548599       0.07299221      -0.05650180       0.14839567
H       21.01256614      20.20402849      20.31905509       0.01978995      -0.07380155       0.06185892
H       19.27643663      20.58195808      20.34113620       0.25395385      -0.04338454       0.07085596
H       21.18852851      20.86924725      17.97349223      -0.20710981      -0.12220777       0.12405224
H       20.17705829      18.58600279      18.50480137      -0.01454379       0.05800878      -0.05349416
H       19.71373654      19.24847997      16.91462216       0.00475129       0.00620831       0.24855076
H       17.48124940      20.19236015      16.65660625      -0.02956847       0.05982343       0.21638329
H       16.42734075      20.29365151      18.09676293       0.09047597       0.02721560      -0.04545260
H       17.85810483      21.92537771      19.15696282      -0.01570109       0.01607013      -0.12743077
H       17.57883322      22.49770227      17.48888424       0.01756228      -0.12351452       0.13169850
H       20.47124084      23.09075448      24.26161934      -0.16389656       0.00038636      -0.03116675
H       18.79642056      23.65583743      24.06284362       0.02143615      -0.00507491       0.02605091
H       18.82095392      21.92751196      25.81207439       0.04211393      -0.05937187      -0.00186291
H       19.67318131      20.80603315      24.73894609       0.00274111       0.04332281       0.04953994
H       16.86050189      21.93052894      24.30227494      -0.02316386      -0.05240525      -0.02150299
H       17.26581434      20.25394148      24.70912516      -0.07256448       0.04889459      -0.02191175
H       16.94978271      15.26032236      16.70925109       0.00595844      -0.02505367      -0.04064461
H       17.90266193      17.50961521      16.44485712       0.01333461       0.02117929      -0.00764137
H       17.32626582      18.35863873      20.57517405      -0.00046720       0.03852906      -0.00820505
