151
Properties=species:S:1:pos:R:3:MACE_forces:R:3 energy:=T -221.329833437681=T gnorm:=T 0.004411711734=T xtb:=T 6.7.1=T (edcfbbe)=T MACE_energy=-90873.2960331851 pbc="F F F"
C       10.64458887      14.36986612      20.17784692       0.30932148      -0.24114926      -0.14176149
N       11.67731729      12.94335349      22.35196783      -0.27106378       0.00242397      -0.16732246
O       12.26660151      12.69971486      19.39820819      -0.11010822       0.03855113       0.19333901
C       12.09429418      13.88750270      20.17045508      -0.07279539       0.19915033      -0.09754372
N       15.44329850      13.95935263      20.11757733      -0.34053399       0.05390043       0.00720484
O       15.79628963      19.49876320      21.70148312      -0.16453269      -0.37306489       0.43729782
C       12.26697992      12.90347209      18.00242193      -0.00197184       0.06424235       0.13963054
N       18.59450089      21.61740070      20.98243860      -0.23213319       0.16927673      -0.15994974
O       18.80038023      21.37070641      14.43840360       0.58705045      -0.37984160      -0.07303361
C       12.55778659      13.55904263      21.57733397       0.35540402       0.12169496      -0.15745916
N       19.71327407      22.05306996      21.70140573      -0.95648675       0.28512083       0.55489253
O       24.16637933      21.11247985      16.45942160      -0.16257642       0.41965177      -0.12770320
C       12.00844997      12.63624190      23.59353273       0.04281514      -0.07625961       0.20126340
N       22.45378017      21.46116271      19.38768379      -0.31354628      -0.67776815       0.06874370
O       22.19871740      23.66298956      19.01165504       0.24748016      -0.28134957       0.07922478
C       13.24292166      12.94016937      24.14554262       0.01201144       0.02258894      -0.07582882
N       24.31203842      23.22778110      17.19158237       0.32800454       0.16120228       0.46721352
O       20.08643990      20.27064404      17.35145876       0.09774390      -0.17941639       0.12410399
C       14.17153592      13.57699394      23.34194984      -0.13287362      -0.09445417      -0.02704998
N       21.07319124      21.35263983      14.48588745       0.14496826       0.16969397      -0.15839095
O       21.94928836      22.14822174      21.90525921      -0.61618369      -0.21408617      -0.11374132
C       13.84505383      13.89101789      22.02397868      -0.18936024      -0.14436258       0.21155733
N       20.80155978      16.46737331      12.23974343       0.09412117       0.10775855      -0.00373774
O       16.10045929      20.95570250      20.02395509       0.16512322      -0.22620994       0.48342317
C       14.83545543      14.57895231      21.18698767      -0.00687638       0.42299356       0.17886648
N       18.67735057      18.13316887      18.48746280      -0.15608816      -0.30695588      -0.05161263
C       15.36681679      12.55294112      19.81127188       0.10244864      -0.56357630       0.15116976
C       16.38032226      11.74917115      20.62478929      -0.10772322       0.13540412      -0.17362526
C       15.31157582      15.86226682      21.33565022      -0.16451364      -0.28679934       0.17111797
C       14.95763917      16.82942156      22.42080626      -0.10839796       0.01765175      -0.06753848
C       13.96318150      17.95632658      22.05627982       0.15515320       0.22663225       0.01251839
C       13.55714526      18.67707217      23.34496173       0.13194185      -0.08352463      -0.17091117
C       12.72315620      17.37930105      21.37691398       0.25770760       0.15343029      -0.01923123
C       14.60372330      18.97234167      21.10203826      -0.46237203      -0.18243731      -0.32199962
C       16.45646985      20.44650849      21.06312778       0.32653959       0.66871010      -0.78947455
C       17.70720232      20.83446251      21.83624290      -0.20741043       0.01950406       0.05837153
C       20.95826784      21.84151742      21.25014377       1.36341733      -0.08751399      -0.22003633
C       21.08996086      21.27129157      19.83112888       0.01974745       0.25478456      -0.07558453
C       22.91330745      22.66593048      19.03886914      -0.01079891       0.40113772      -0.20274261
C       24.36918610      22.68168856      18.55276830      -0.04243086      -0.14660402       0.14924945
C       25.31154067      23.38363174      19.53646840      -0.01894794      -0.07775873      -0.11652054
C       26.74199987      23.39058334      18.99807838      -0.20303132       0.14868325      -0.01205310
C       25.26032271      22.62439092      20.86395078      -0.24152238       0.25009313      -0.05338280
C       24.05406000      22.32039142      16.23924931       0.23507856      -0.88223565      -0.45974213
C       23.57600705      22.76723983      14.84144529      -0.17125871       0.02798120      -0.45504648
C       22.22795519      23.48892281      14.87027056       0.09950695      -0.13927354       0.08358202
C       21.13317023      22.53127461      15.32113672      -0.30840502       0.35357934       0.25920187
C       19.87323579      20.79766874      14.23305548      -0.86799030       0.81408071       0.17139305
C       19.89523932      19.46478958      13.69047492      -0.39851797      -1.19001007      -0.31329999
C       19.76699157      18.32322247      13.32888747       0.26789821       1.00903743       0.26755927
C       19.58983816      16.93051250      12.92898293      -0.21996422      -0.25605469       0.21596427
C       21.26216870      17.34396772      11.18218039      -0.00585980       0.06122973      -0.04383014
C       20.73652696      15.09964496      11.76578827      -0.00622350       0.03125135       0.04355389
C       19.41017129      16.14051566      14.23993141      -0.08653080       0.04146846      -0.08351258
C       18.29813718      16.85003412      12.08924338       0.12950802      -0.01846223      -0.01473203
C       22.31603844      20.63419759      14.30992757       0.32172808      -0.44764930      -0.03840677
C       23.45549375      21.56808670      13.89939971       0.05592231      -0.07070803       0.42789992
C       24.23303967      24.66570569      17.05446487      -0.16168682       0.44459809      -0.01741901
C       20.70143889      19.80251004      19.69642468      -0.11002331       0.30075155      -0.36392806
C       20.72301035      19.34708933      18.22364465       0.20626161      -0.18048191      -0.01883889
C       20.05893539      17.96678239      18.09588598       0.22370619       0.28993505      -0.09181010
C       17.99979057      19.01478627      17.55625372       0.07460197       0.40470677      -0.29978101
C       18.68853733      20.37646519      17.56888693      -0.48026890       0.17448170      -0.04646173
C       19.46011038      22.81055047      22.91957691       0.15481694      -0.09998022       0.13765506
C       18.56223653      22.01270515      23.86021822      -0.05474460       0.20426451      -0.20809372
C       17.29812795      21.59005795      23.11411792       0.31019086      -0.26371704       0.13959570
C       16.27241109      16.04817363      20.29809989       0.14366478      -0.41323799      -0.29297019
C       16.33837645      14.83428873      19.56810189       0.31030032       0.63823839      -0.13497986
C       17.21321335      14.68634641      18.49685597      -0.02098248      -0.22198612      -0.06427664
C       17.99579843      15.76169385      18.13375588       0.11960233       0.11617751      -0.08093425
C       17.93126796      16.97275379      18.83668520       0.01600718       0.15700805       0.22811752
C       17.09708031      17.10586357      19.92768297       0.03390049      -0.06314388      -0.13527766
F       24.53822489      23.63476134      14.28406905       0.00380596      -0.04553077       0.11914795
H       10.55030661      15.22422567      20.83978156      -0.04978932       0.09003997       0.04581995
H       10.33344045      14.66324643      19.17930599      -0.01989167       0.05204517      -0.05309758
H       10.00712973      13.56847519      20.53761231      -0.03921766       0.04505830       0.00230313
H       12.74858794      14.67030212      19.75382194      -0.15261541      -0.22078435       0.11200550
H       11.28409398      13.21143957      17.63554182       0.06276111      -0.02017699      -0.01784207
H       13.00977998      13.65884544      17.72039633      -0.03597257      -0.06417332      -0.02932624
H       12.53206462      11.94457969      17.56259042      -0.01961840       0.09855337      -0.10898716
H       11.24175423      12.13245848      24.16540609       0.03410678      -0.02567830       0.12905563
H       13.46777433      12.68436673      25.16796098       0.01256326      -0.02565211       0.06232927
H       15.15183879      13.82533161      23.72254231       0.02307244       0.02433391      -0.02918260
H       14.35569773      12.19765725      20.02047284       0.27408014       0.12281377      -0.19193197
H       15.56085801      12.42782121      18.74383378      -0.14179891       0.02816754       0.11437007
H       16.15617630      11.82452125      21.68612851       0.00756373      -0.01014903       0.03326310
H       16.33859415      10.70385633      20.33400808       0.03654826      -0.10465896       0.02067423
H       17.38667793      12.12419402      20.45339853       0.05103534      -0.02791638       0.02176847
H       14.51789002      16.26771012      23.24702443       0.07635060       0.12143413       0.02793234
H       15.87638970      17.29892709      22.77679383      -0.08409928      -0.08429637       0.15262798
H       12.89074085      19.50643352      23.12150425      -0.06306095       0.08080875       0.01962685
H       13.04192641      17.99299399      24.01335362      -0.02637939      -0.04725593       0.06282007
H       14.43546026      19.06552835      23.85309315       0.01060320       0.03997868       0.08773458
H       11.99475689      18.16155096      21.18048921      -0.10094033       0.03351726      -0.00820059
H       12.98822304      16.91111194      20.43290110      -0.04757614      -0.05487641      -0.04561977
H       12.26681760      16.62964163      22.01772635      -0.06346362      -0.05694705       0.00577628
H       13.92018011      19.80145611      20.89461018       0.09326652      -0.15131427       0.05750722
H       14.86850075      18.50314627      20.14973686      -0.01730962       0.10559436       0.18222210
H       18.23872816      19.91800237      22.11667231      -0.10919157       0.16584538      -0.04663857
H       18.08091685      22.40768011      20.58976075       0.19803311      -0.17997207       0.06007911
H       20.45387852      21.88844866      19.18607906       0.16758744      -0.26605340       0.13632642
H       23.08953044      20.68533943      19.48632796      -0.02211428       0.27587214      -0.11546035
H       24.71238747      21.64880178      18.43906200      -0.11413297       0.31999669       0.06286731
H       24.96143012      24.40423793      19.71291555       0.04022157      -0.08871961      -0.02190913
H       27.43100763      23.68674139      19.78455416       0.07222466       0.03593875      -0.00135086
H       27.01658588      22.39436754      18.65688426       0.03811672      -0.06574399       0.00760035
H       26.86232745      24.07568997      18.16334887       0.04562947      -0.01976409      -0.07016848
H       25.89936434      23.11274822      21.59419036       0.05727255      -0.02941309       0.05545744
H       24.24855524      22.59481463      21.26421468       0.05914958      -0.05258374       0.05186964
H       25.61266235      21.60391225      20.72971089       0.06023252      -0.09227039       0.00428214
H       22.23893767      24.34241631      15.54220907       0.01410606      -0.03606968      -0.07953313
H       22.02134608      23.84543469      13.85909074       0.06343387      -0.02099682       0.07694281
H       20.15708037      23.01920675      15.26920554       0.26711005      -0.12282559       0.11154198
H       21.30451046      22.21953274      16.36059974      -0.07463068       0.06807118      -0.17164920
H       21.32521932      18.36374780      11.55306097       0.08092539      -0.06790840      -0.15926905
H       22.25634126      17.01901972      10.88147626      -0.00924848       0.03713683      -0.05210615
H       20.61371212      17.33241062      10.29354967       0.04875826       0.02115092       0.02017697
H       20.41891233      14.43782220      12.56584603      -0.00590571      -0.07386574      -0.05532437
H       20.06493629      14.97311389      10.90362992       0.00697125      -0.03640580       0.05606465
H       21.73955004      14.80497782      11.45863223      -0.07118361      -0.06132506      -0.01065650
H       18.74055986      16.68595454      14.90163339      -0.01524343      -0.08767419      -0.01666779
H       18.97880218      15.16227859      14.05008855       0.00761752      -0.08588793       0.00979990
H       20.37510598      16.02406360      14.72645385      -0.00044762       0.01729627       0.03235295
H       18.42773143      17.36341884      11.13951750      -0.03402121       0.00192451      -0.02003850
H       18.03154283      15.81340088      11.90395640      -0.01896825      -0.05714822      -0.04465406
H       17.48586612      17.33127614      12.62787630      -0.02807421      -0.03118391       0.00530826
H       22.58749128      20.13509757      15.24569178      -0.04038880       0.06170297      -0.27303173
H       22.17650199      19.87709146      13.53783360       0.11614677       0.13870551       0.20645101
H       23.29172524      21.95690553      12.89393247      -0.02243055       0.05602933       0.08224189
H       24.38731153      21.00232989      13.91103603      -0.09451651       0.10471537      -0.01989852
H       24.33406158      24.96226501      16.01707848       0.00859043      -0.05966109       0.11637761
H       23.29079502      25.03009701      17.47096462       0.16861670       0.00679274      -0.06837806
H       25.04909188      25.11584626      17.61430376      -0.04160096       0.01802942      -0.06852604
H       21.39438228      19.18461441      20.26678716      -0.02707479      -0.06156603       0.09580352
H       19.69475112      19.65770931      20.08151490       0.23609412       0.00585019       0.07911517
H       21.75134909      19.30699879      17.84899716      -0.16874533      -0.09285657       0.12501093
H       20.53862467      17.25290209      18.76568280       0.01862112       0.00649590      -0.05586885
H       20.16930246      17.62447814      17.05277778       0.00836798      -0.00353657       0.18603491
H       18.01830108      18.60918903      16.52626919      -0.04353790       0.10104302       0.18762418
H       16.96073497      19.14382363      17.86359283       0.12143622      -0.03650511      -0.05428024
H       18.48275067      20.87455701      18.52337733       0.05479058      -0.11983560      -0.14457125
H       18.31348453      20.99530025      16.75070849       0.05873401      -0.14880529       0.21679365
H       20.42819598      23.02766108      23.36980492      -0.20409671       0.00615592      -0.10177675
H       18.97360411      23.75214684      22.64014918       0.03513134      -0.03781191       0.06028284
H       18.30535198      22.62825209      24.72110158       0.02957151      -0.04825460       0.03987037
H       19.09721075      21.12953800      24.21070128       0.00053054       0.04827388       0.02944117
H       16.71486634      22.47145447      22.83697591      -0.03311642      -0.05266139      -0.01741793
H       16.67945173      20.94441200      23.73502455      -0.05140043       0.05643522      -0.04217765
H       17.27841903      13.75817939      17.94998610       0.00852129      -0.04555041      -0.02292094
H       18.67036662      15.67182898      17.29595562       0.02186660       0.00228015      -0.05141000
H       17.11241977      18.03113504      20.47548371       0.03467866       0.01118132      -0.02496434
