151
Properties=species:S:1:pos:R:3:MACE_forces:R:3 energy:=T -221.330626163552=T gnorm:=T 0.003757253016=T xtb:=T 6.7.1=T (edcfbbe)=T MACE_energy=-90873.25415267498 pbc="F F F"
C       10.93151228      13.92183365      20.95454751       0.26929089      -0.08646522      -0.29767850
N       12.62125861      12.19811937      22.34693018      -0.30795887      -0.01818974      -0.10090851
O       12.45293036      12.84922616      19.35292783      -0.08824631      -0.01869160       0.15375245
C       12.36965883      13.71898819      20.48192496      -0.10333908       0.18771677      -0.02067654
N       15.64765737      14.12690943      19.60309202      -0.29129596       0.00396746      -0.03084629
O       16.10146035      19.15648602      22.32745747      -0.00391247      -0.62910894       0.41237798
C       12.09655635      13.45035467      18.12696260       0.03209704       0.05941817       0.16036103
N       18.44609755      21.76273916      21.73581833      -0.38726905       0.22843532      -0.09929300
O       18.52900205      19.58131363      14.08959132       0.81235220      -0.08058801      -0.03948775
C       13.21799876      13.09099010      21.57103660       0.28125676       0.22122891      -0.22976300
N       19.66857560      22.19056335      22.26268998      -0.68626313      -0.04847054       0.75245181
O       23.19549449      21.87237003      16.23925202      -0.26296733       0.30851449      -0.24260802
C       13.31037876      11.61431135      23.31103172       0.12617341      -0.12766980       0.19089784
N       21.69495913      22.49794408      19.25704218       0.02993113      -0.71788288       0.38318173
O       20.67860730      24.35563899      18.48063738       0.30045909      -0.08004693       0.04227180
C       14.64114835      11.90036200      23.57344024      -0.02570572       0.02628262      -0.03267052
N       22.64453178      24.04171970      16.38100041       0.20667218       0.30119323       0.29934169
O       19.42539414      21.22673931      17.54429973       0.04781332      -0.16620029       0.16740363
C       15.27207091      12.83172606      22.76915478      -0.14003562      -0.05327419      -0.08510458
N       20.60758420      20.50868911      14.05292120       0.09311410       0.23223768      -0.18582794
O       21.83148043      22.69901944      21.91565197      -0.42573351      -0.26066250      -0.07124418
C       14.56480425      13.44061803      21.73324791      -0.07326339      -0.25123837       0.27774469
N       22.49451724      15.55010941      13.29084794       0.05049665       0.06086364       0.01925124
O       15.80480920      21.16183374      21.36915783       0.36914761      -0.34643881       0.29101441
C       15.25885959      14.42352886      20.89015212      -0.01887929       0.37505382       0.31535200
N       18.30583627      18.83056642      18.44350586      -0.10961434      -0.22094230      -0.11641474
C       15.57360590      12.82711071      18.98349204       0.15595136      -0.49530186      -0.01450867
C       16.80441062      11.98513056      19.31635839      -0.13375835       0.13637903      -0.11235062
C       15.68271179      15.68408022      21.24429759      -0.13312763      -0.36250445       0.16058576
C       15.50466367      16.34178070      22.57650080      -0.11193161       0.03134678      -0.08351747
C       14.42069472      17.44110708      22.67603643       0.17227635       0.20523318       0.04509490
C       14.25672320      17.82614688      24.14900426       0.06628549      -0.01966232      -0.21782907
C       13.08877520      16.93976780      22.12221267       0.24337690       0.17343234      -0.04568431
C       14.81950566      18.69069552      21.88193638      -0.50637432      -0.07307042      -0.24100377
C       16.48289326      20.37056707      21.98657031       0.01754511       1.01635659      -0.59960661
C       17.87886578      20.66579769      22.50999500      -0.14677486      -0.03956709       0.16441775
C       20.75071476      22.31653811      21.48005189       0.90026125       0.31768647      -0.58185367
C       20.55252898      22.00896389      19.99402425      -0.03637845       0.16112576      -0.08672205
C       21.66764519      23.63508224      18.55693892      -0.10845131       0.35477245      -0.30681386
C       22.96766264      23.95571411      17.80814184       0.00845312      -0.02909424       0.35926214
C       23.65147494      25.19047793      18.41164510       0.05208033      -0.09605973      -0.07009172
C       24.91896317      25.54394705      17.63631740      -0.27676209       0.03773646       0.01416285
C       24.00904586      24.88277106      19.86733430      -0.29274453       0.11354262      -0.12786633
C       22.74710819      22.88968950      15.70412488       0.43278081      -0.77826502      -0.09712771
C       22.34778604      22.82162551      14.21415469      -0.07406754      -0.05158446      -0.50264391
C       20.84923012      22.96211876      13.94540822       0.14618687      -0.14626182       0.12622252
C       20.09969810      21.77748032      14.53648726      -0.37243832       0.28462431       0.17787904
C       19.75385911      19.47138838      13.96946257      -1.24205486       0.39046539       0.12241440
C       20.34213608      18.17754304      13.74258131       0.03567423      -1.24792339      -0.09345197
C       20.66207679      17.02095059      13.63773676      -0.02876561       1.03000770       0.01924508
C       21.04575857      15.61710060      13.51610609      -0.24249324      -0.26384166       0.07474388
C       22.93908663      16.25581327      12.10544468       0.06221285       0.01513003      -0.05985361
C       23.06527436      14.21895798      13.32818142      -0.08461800       0.06023952       0.00467415
C       20.68139913      14.96401294      14.86084338       0.00138231      -0.02767670      -0.07872165
C       20.18959644      14.99874371      12.39029356       0.14750914       0.02432187       0.06891697
C       22.04092021      20.30985991      14.12369508       0.48097694      -0.30793623       0.15792509
C       22.81334353      21.50946979      13.57858876      -0.00845677       0.08639824       0.34768625
C       21.99748034      25.25009519      15.91524948      -0.37717143       0.23556774      -0.12032859
C       20.34327225      20.51840565      19.71317244      -0.17061885       0.29297805      -0.40344829
C       20.22474928      20.25305496      18.20059697       0.29597328      -0.26995796       0.00526847
C       19.66469863      18.84491224      17.94684416       0.20470412       0.25862021      -0.14698163
C       17.49091836      19.75213245      17.67007832       0.00745091       0.44295355      -0.27864926
C       18.04874860      21.15633919      17.87825248      -0.35740854      -0.05874982      -0.04913987
C       19.69356829      22.55114089      23.67227613       0.26571469      -0.09979585       0.10112533
C       19.18795611      21.37933640      24.50949588      -0.18582738       0.25688778      -0.09809145
C       17.80040936      20.97223228      24.01837624       0.25964504      -0.23515970      -0.08119883
C       16.39464743      16.19082132      20.11672796       0.09116430      -0.25798522      -0.38208875
C       16.35757983      15.18745053      19.11493834       0.18070089       0.61363790       0.06647201
C       16.98433635      15.36954579      17.88596672       0.00807128      -0.16361430      -0.17613633
C       17.63605684      16.56204986      17.65313217       0.10070089       0.07818395      -0.11455601
C       17.68888087      17.55805986      18.63736172       0.06299399       0.20389164       0.33824138
C       17.09081670      17.36922324      19.86553766       0.02616939      -0.07763287      -0.17927323
F       23.02079805      23.86083208      13.53626678      -0.01215394      -0.01752610       0.08585256
H       10.48961492      12.95493259      21.17324492      -0.02416397       0.03002388       0.04434879
H       10.92841142      14.52589502      21.85621956      -0.07342496       0.04657305       0.06181069
H       10.34492436      14.42730953      20.19270513      -0.02345145       0.05946625      -0.01289348
H       12.81598247      14.68705622      20.20462192      -0.08478192      -0.24811113       0.08188455
H       12.71520457      14.33662915      17.93354055      -0.06526673      -0.09554738      -0.02356127
H       12.27936517      12.69913067      17.36243645      -0.04274552       0.10810232      -0.05618078
H       11.04102638      13.73980835      18.10677655       0.09270513      -0.02509736      -0.04406087
H       12.76198044      10.89086676      23.89879394       0.07275553      -0.04476331       0.09341406
H       15.16440175      11.40887335      24.37738528       0.00939403      -0.02478888       0.04477286
H       16.30895922      13.09158327      22.92596616       0.01727760       0.01855767      -0.00418797
H       14.66672753      12.32446269      19.32616102       0.19610725       0.19373077      -0.19233068
H       15.49858472      12.97086273      17.90342767      -0.10914185      -0.01970453       0.14442031
H       16.77466821      11.05138927      18.76246403       0.04957562      -0.10103594      -0.00357771
H       17.71131338      12.52469853      19.05149902       0.04601197      -0.04425648      -0.00423570
H       16.83165752      11.75876948      20.37990078       0.01165155      -0.00711967       0.01396402
H       15.24685687      15.56829289      23.30272593       0.07537398       0.11109629       0.04492291
H       16.45658122      16.78658656      22.87227306      -0.04316019      -0.11303171       0.13678091
H       13.50600284      18.60579793      24.25516932      -0.04876748       0.06092781       0.04842380
H       13.94252862      16.96579061      24.73317669      -0.02248193      -0.06082288       0.06931077
H       15.19742218      18.19447594      24.54923760       0.03048094       0.00684131       0.09279565
H       12.31109852      17.68658620      22.25999536      -0.09608285       0.02682528       0.03487726
H       13.17592454      16.72851336      21.05994440      -0.03792204      -0.04968016      -0.04436289
H       12.79249309      16.02834470      22.63446818      -0.04411369      -0.07197360       0.02083344
H       14.08778570      19.49323212      22.01874763       0.12055956      -0.19172575      -0.01648818
H       14.88845668      18.46809692      20.81296244      -0.00286938       0.07374444       0.17315010
H       18.50691331      19.78097296      22.35866624      -0.10930854       0.14219312       0.01928789
H       17.77481633      22.53202411      21.69909704       0.21702670      -0.16740597       0.00013533
H       19.69244423      22.58692173      19.64067135       0.25327377      -0.27449630       0.08203973
H       22.55346582      21.97511752      19.34207831      -0.14966430       0.27293432      -0.14999921
H       23.65275663      23.10757349      17.90223693      -0.15636833       0.26895920       0.00538562
H       22.94912239      26.02867671      18.40354409       0.08194775      -0.10940694      -0.02590200
H       25.60414841      24.69918367      17.64386075       0.06625514      -0.04046081      -0.00464481
H       24.70723446      25.79624886      16.60114277       0.03532321       0.01712511      -0.07154586
H       25.41225239      26.39164053      18.10482548       0.06780138       0.03468345      -0.02105462
H       23.13976329      24.55559542      20.43309594       0.05277592      -0.00269599       0.09012419
H       24.76093152      24.09904730      19.91565770       0.07132666      -0.08599946       0.02175914
H       24.41031434      25.77211998      20.34437639       0.06486935       0.03790278       0.05742939
H       20.44202041      23.87311504      14.37659825       0.04367022      -0.03346891      -0.04312157
H       20.71296505      23.00017710      12.86246247       0.05650075       0.02538167       0.08734740
H       19.04196278      21.82436285      14.26623678       0.26371976       0.01823729       0.17025416
H       20.16899338      21.80481697      15.63085357      -0.08686144       0.01127560      -0.28952983
H       22.75753245      15.69489910      11.17623965      -0.00637835       0.06821350       0.05021230
H       22.43413974      17.21745803      12.03866510       0.09095499      -0.03129902      -0.05513597
H       24.01141654      16.43067146      12.19279113      -0.03646708       0.01525558      -0.08688384
H       22.81696745      13.72835161      14.26335420       0.03874655      -0.08816705      -0.00152376
H       22.74239276      13.58474805      12.48902891       0.02502443      -0.00287905       0.05456034
H       24.14769269      14.32151371      13.27473502      -0.00979269      -0.08075681       0.00409850
H       21.40303260      15.25490932      15.61897135       0.00685497       0.00023078       0.01889574
H       19.69586925      15.30333711      15.17173064       0.01891314      -0.07392219      -0.01002477
H       20.65762497      13.88226817      14.77072854       0.02369899      -0.07581340       0.03721581
H       20.42450494      13.94318799      12.27851646      -0.00875436      -0.05178546      -0.01969703
H       19.13612723      15.10025133      12.63850869      -0.01645099      -0.02916405      -0.03626398
H       20.36900918      15.50851620      11.44666130      -0.02126034      -0.03181022      -0.00348562
H       22.33829432      20.14722894      15.16553629      -0.04692803      -0.03895255      -0.34101293
H       22.29930642      19.42054697      13.54655658      -0.03208993       0.19289023       0.12462909
H       22.67122340      21.60055650      12.50055122      -0.04334888       0.04021031       0.09721448
H       23.87371329      21.36021772      13.78170350      -0.09732754       0.03089476      -0.03488467
H       22.01995128      25.31368050      14.83391266       0.06915527      -0.02736470       0.10495447
H       20.96913341      25.28273957      16.28289526       0.14714094       0.10164481      -0.07189749
H       22.52627266      26.11174012      16.31286878      -0.04466098      -0.02563132      -0.07219783
H       21.18449574      19.94591988      20.10315282       0.01173328      -0.06314716       0.05842849
H       19.42577513      20.18649358      20.19299660       0.19605458       0.01183394       0.04391927
H       21.20589900      20.35674846      17.72213453      -0.18177369      -0.08367468       0.14839174
H       20.25354564      18.10417071      18.48865515       0.01042998       0.03757464      -0.05315254
H       19.72444542      18.62854241      16.86408808       0.01800487       0.00254532       0.21465157
H       17.50085117      19.50422309      16.59291492      -0.03159391       0.04915574       0.22311826
H       16.46260568      19.71338385      18.03311400       0.08840879       0.02202095      -0.02728816
H       17.88955579      21.45501507      18.92135548       0.00340250      -0.00487767      -0.11335337
H       17.55684263      21.87167474      17.21748121      -0.00529439      -0.09322292       0.13152001
H       20.72213351      22.81323421      23.91920113      -0.22440009      -0.00488291      -0.03779828
H       19.05239158      23.42728224      23.82065108       0.06852840      -0.04774684       0.01028703
H       19.14908628      21.67178651      25.55752883       0.04126878      -0.05128399       0.01788435
H       19.87616424      20.53934984      24.40735151       0.03086059       0.02980529       0.05177275
H       17.09062699      21.78636732      24.18510557      -0.00662057      -0.05787009      -0.02951312
H       17.44592225      20.08860383      24.54697841      -0.06116763       0.05231180       0.00458090
H       16.96051477      14.60500714      17.12425767      -0.00100910      -0.03805902      -0.02581407
H       18.11246573      16.74059661      16.69909926      -0.01191308      -0.01505530      -0.01053354
H       17.18827172      18.14056894      20.60829205       0.00405890       0.00839992      -0.00119966
