151
Properties=species:S:1:pos:R:3:MACE_forces:R:3 energy:=T -221.333444855417=T gnorm:=T 0.006607549890=T xtb:=T 6.7.1=T (edcfbbe)=T MACE_energy=-90873.44081087426 pbc="F F F"
C       11.02034341      15.80199780      24.79587967      -0.04952813       0.01726146      -0.40121016
N       11.83816001      13.33069163      23.70752958      -0.24439549       0.13289205       0.17492832
O       10.27257356      15.56448309      22.47083422       0.05427290      -0.14616784       0.15051899
C       11.41071835      15.67490253      23.32299322       0.04376552       0.20741646       0.15245348
N       13.13593132      16.23164108      20.61223498      -0.02616547       0.01475998       0.31765881
O       17.65055301      18.50186134      23.57787143      -0.10625406      -0.58483029      -0.28662019
C        9.56339558      16.77116224      22.28519990       0.15124833      -0.10919271       0.04326885
N       20.03945028      20.80667130      23.00294245      -0.28441045       0.23532554       0.20822952
O       22.80071301      17.13530944      13.25575744       0.34364624       0.68318711      -0.14025117
C       12.25546799      14.43273476      23.10151928       0.17175637       0.24393188      -0.25752138
N       21.39076104      20.93278351      22.66570780      -0.10523586      -0.19504591       0.92855230
O       22.91592768      22.22520381      16.79875666      -0.38592858      -0.13882051      -0.36364900
C       12.53825920      12.21722858      23.58399358       0.05174131      -0.21387306      -0.00177036
N       21.04440092      22.17153530      19.31662259       0.57673166      -0.40516463       0.17033469
O       19.18737113      23.44854842      19.16752429       0.01031280       0.05773734      -0.05106895
C       13.71709074      12.13981868      22.85971901       0.01631244       0.04614835      -0.03672667
N       20.88593193      23.13099575      16.45388220      -0.18900253       0.30895745       0.14099809
O       18.88532636      20.44717429      17.93340374       0.02173256       0.07697726       0.00763311
C       14.15665188      13.28174171      22.21630035      -0.14946467       0.03478600       0.07370667
N       22.68012559      19.39301552      13.09956219      -0.21840278       0.42256707       0.03046537
O       22.92655550      21.27612080      21.04960477      -0.64598282      -0.12956971       0.15727456
C       13.41821554      14.46065330      22.31686125      -0.05538068      -0.37203915       0.13630093
N       27.65477227      16.64978491      11.89354047      -0.05242139      -0.03052305       0.00545211
O       17.84453709      20.36416133      24.81937279       0.28732664      -0.37586080      -0.38670208
C       13.88424176      15.66033647      21.61712014       0.26846696       0.16498998       0.14742234
N       16.38933641      20.53306345      19.34402778      -0.01357684       0.25320820       0.02098731
C       12.05378897      15.58668933      19.91132600      -0.22342589      -0.47465785      -0.31505539
C       12.58087174      14.58887979      18.87954649      -0.06544545       0.22479879       0.12649996
C       15.04537191      16.37462856      21.81814744      -0.13187009      -0.31623690       0.04003996
C       16.12967349      16.05971010      22.80039797      -0.12215671       0.07559690       0.14123156
C       16.03898558      16.78435702      24.16328447       0.25281749       0.13964872      -0.00580814
C       17.09720679      16.19831627      25.10358136      -0.10205049       0.12721705      -0.19072003
C       14.65639436      16.60680934      24.78486935       0.20544773       0.15115249      -0.14480162
C       16.29169659      18.28688566      23.98771909      -0.62852451      -0.04651728       0.36982265
C       18.30887945      19.52386347      24.07830591       0.15119860       0.93186478       0.43498381
C       19.76371760      19.51789305      23.63531971       0.01600175      -0.14842247       0.29492303
C       21.75368516      21.17829751      21.39670261       0.55631768       0.47403634      -1.01308294
C       20.59500937      21.35006229      20.41286897      -0.14808849      -0.04762068       0.02110430
C       20.32361531      23.17103874      18.80328695      -0.16199161       0.27642616      -0.10797551
C       21.04278076      23.92238484      17.67559162       0.02823849       0.24944357       0.17710404
C       20.54854711      25.36758119      17.52041740       0.15796124      -0.11800823       0.10793657
C       21.27780626      26.06455272      16.37483179      -0.13637397      -0.19925174       0.06921591
C       20.78484647      26.12751429      18.82602521      -0.25371901      -0.16505248      -0.07493848
C       21.91209246      22.35539595      16.09289362       0.98612640      -0.26272199       0.11035583
C       21.87588517      21.60395606      14.75461463       0.44371659      -0.32912756       0.24178321
C       21.30048040      20.19675756      14.94490523      -0.02192838       0.17226934      -0.22164062
C       21.32995953      19.44444154      13.61338674      -0.29242589      -0.27945420       0.21871006
C       23.32285974      18.21806049      12.98301317      -0.67001732      -1.23059545       0.22347204
C       24.67556573      18.27220660      12.48995703       1.12224004      -0.35267991      -0.28526205
C       25.80817614      18.10868271      12.11305604      -0.94422457       0.33965852       0.27338315
C       27.17631935      18.00955897      11.60897060       0.17998322       0.05729357      -0.30009980
C       27.58284701      16.28286553      13.29396720      -0.05785977      -0.02654417       0.08502258
C       28.95626601      16.31857340      11.35121776      -0.05404291       0.01498178      -0.01376042
C       27.09346045      18.23829682      10.08925157       0.07861673      -0.03194417       0.14557385
C       28.01524867      19.13271237      12.25420525      -0.01429320      -0.19073289       0.02168042
C       23.27952370      20.68711071      12.87674141       0.20278407       0.38248485       0.00731261
C       23.28979343      21.50444522      14.17139834      -0.19494927      -0.00904731       0.01017593
C       19.56946255      23.14944673      15.85219413      -0.33929860      -0.04468626      -0.22837835
C       20.12784996      19.95887342      19.95061202      -0.26469610       0.31409956      -0.19544972
C       18.76740263      19.93005552      19.25464266      -0.02235308      -0.14486323       0.32731936
C       17.66541083      20.69255378      20.01182729       0.30795664      -0.00404108      -0.03509518
C       16.52097506      21.06550721      18.00016166       0.19174821      -0.08825808      -0.26462386
C       17.64705720      20.34322663      17.25107321      -0.18570709      -0.00819495       0.00462258
C       22.35767365      20.74630429      23.73604064       0.18338926      -0.24579961      -0.04375715
C       22.13285362      19.39025606      24.40481049      -0.08874070       0.23957751       0.04021465
C       20.67521166      19.26780354      24.84936366       0.09658469      -0.08488400      -0.32128312
C       15.02255871      17.44966211      20.87618127      -0.41965235      -0.08565612      -0.42697823
C       13.82421036      17.31661237      20.13923967       0.44607756       0.46872330       0.07929904
C       13.50464513      18.23038045      19.14412775      -0.05341289      -0.03589869      -0.07134169
C       14.37576367      19.26477096      18.90168484      -0.03160080       0.03668305      -0.19202349
C       15.59900794      19.41001405      19.59402089      -0.09435486      -0.11260664       0.16652605
C       15.91710181      18.48039923      20.57802846       0.07725220       0.12405428      -0.10425420
F       21.09797078      22.30320478      13.82427197      -0.14066782       0.05925856      -0.10729959
H       11.91529548      15.80024921      25.40968260       0.04251105       0.00624597       0.08500577
H       10.48070110      16.72923192      24.96839747      -0.00429170       0.05269848       0.03582831
H       10.39504106      14.95926601      25.07025551      -0.00497951      -0.00537362       0.06308616
H       11.99050962      16.55951640      23.01399993      -0.15376701      -0.24334382       0.06473415
H       10.23353610      17.56386817      21.93225103      -0.08104976      -0.01770228       0.00286362
H        8.81148099      16.56054598      21.52798598      -0.00556551       0.13558644       0.03580166
H        9.07001851      17.09737796      23.20415044       0.00234564       0.02106255      -0.06136105
H       12.13231154      11.35633876      24.09746967       0.08619331      -0.09811274      -0.00927353
H       14.26770785      11.21511193      22.79626686       0.00938912      -0.05787766      -0.00296642
H       15.05896405      13.27262550      21.62270500       0.01859351       0.01001935      -0.01936900
H       11.41169100      15.07465412      20.63119766       0.10778847       0.26286957      -0.23227456
H       11.46535880      16.36160138      19.41619765      -0.00131302      -0.09906354       0.16192054
H       13.27502158      15.08063932      18.20208686       0.02396310      -0.02556748      -0.06185304
H       13.09905111      13.77197566      19.37615527       0.01313324      -0.03397811      -0.01016762
H       11.75619530      14.18067949      18.30462489      -0.05693710      -0.08943215      -0.07939282
H       16.11914101      14.98734351      23.00286732       0.12675350       0.05319421      -0.00639530
H       17.09117563      16.31268649      22.35001031       0.02798837      -0.15478931       0.03896596
H       16.85405492      15.16598214      25.34075190      -0.00003309      -0.06788024       0.00919963
H       18.08022344      16.22434216      24.64014047       0.05489266      -0.02074375       0.03541688
H       17.13495433      16.76482062      26.03179633       0.03106514       0.00833008       0.08315507
H       14.41624278      15.54985710      24.85930301      -0.06769649      -0.04669745       0.02238467
H       14.62902932      17.04181726      25.78064496      -0.03667377       0.01053156       0.09000500
H       13.89964500      17.09163137      24.17565525      -0.11545351      -0.00306625       0.00838066
H       16.12463282      18.82677312      24.92509822       0.02243556      -0.15884498      -0.20656415
H       15.63541002      18.70180500      23.21874723       0.15956237      -0.03346799       0.14114929
H       19.90518361      18.72825527      22.89115131       0.04033006       0.18692001       0.13805576
H       19.76678929      21.55068942      23.64941768       0.11558933      -0.19984418      -0.23368755
H       19.77980202      21.87441853      20.91366592       0.22098381      -0.15510088      -0.16346918
H       21.98046769      21.99003278      18.97497344      -0.14201042       0.17308062      -0.00670254
H       22.11541958      23.93355928      17.89543685      -0.29489038       0.03908392      -0.04373999
H       19.47410759      25.35610938      17.32733725       0.08257006      -0.01360045       0.01170487
H       20.87783657      27.06433826      16.23647698       0.01185412       0.09616407      -0.03533275
H       22.33845230      26.14656377      16.60318718       0.09074305       0.02426243      -0.01963930
H       21.17248283      25.51896994      15.44212340       0.02322903       0.01882471      -0.10559815
H       20.47572747      27.16287649      18.70708801       0.02663795       0.06370711       0.05952829
H       20.20698185      25.68766908      19.63449822       0.01110386       0.05092621       0.03136914
H       21.83674138      26.10766103      19.09902047       0.12245597       0.03145852      -0.00143170
H       21.92283898      19.68478403      15.67957990      -0.06257196       0.02654767      -0.01827964
H       20.28356837      20.23522942      15.33344782       0.04763446       0.04688768       0.03865580
H       20.69589395      19.96151998      12.88599960       0.03805768      -0.10346738       0.06966039
H       20.97776298      18.41974160      13.74178437       0.04904797       0.22578998      -0.06974668
H       28.35468848      16.77042379      13.90904276      -0.06054561      -0.02492176      -0.01311313
H       26.60132342      16.53651899      13.68855768       0.13054751      -0.10461718       0.06534446
H       27.71805699      15.20464264      13.37320607      -0.00275857       0.05735823       0.04975485
H       29.78327449      16.84186973      11.85345980      -0.00373422      -0.00255709      -0.06070230
H       29.10635618      15.24770097      11.48411930       0.07271426       0.04999610      -0.02839049
H       28.98928950      16.53243082      10.28785013       0.09390045      -0.02155051      -0.00037753
H       26.50577651      19.12939908       9.88915609       0.02295900       0.03922108      -0.01236896
H       28.08277906      18.37819267       9.66619204       0.07065212       0.01664671      -0.05821253
H       26.61262494      17.38787506       9.61707306      -0.02243585      -0.04220279      -0.02378846
H       27.60737643      20.10025323      11.97561202      -0.00692429       0.05355507      -0.01257450
H       28.00136495      19.05115889      13.33827350       0.03013006       0.02334639       0.00489590
H       29.04281502      19.07353855      11.90463929       0.04449900       0.02259981      -0.00830355
H       24.29744132      20.55374661      12.50992010      -0.26611281       0.12669970       0.02263762
H       22.69033358      21.21887057      12.12150112       0.16865079      -0.09812292       0.01657679
H       23.66716201      22.50725161      13.96967704      -0.01519408      -0.02191254       0.08103269
H       23.92941458      21.04073217      14.92197920      -0.05427713       0.05878115      -0.10963092
H       18.83693314      23.24870330      16.65092224      -0.03323744      -0.01769970      -0.02998602
H       19.46468324      23.98338586      15.15697456      -0.05091124      -0.10096705       0.03326414
H       19.37394462      22.22526386      15.32031889      -0.00383270       0.12971333       0.05635746
H       20.87700100      19.54932650      19.27192438      -0.01514882      -0.05255861       0.09621128
H       20.05656448      19.31475811      20.82352023       0.03312856      -0.08404881      -0.00845083
H       18.45586364      18.87217818      19.16977879       0.06143998       0.25041720       0.06033847
H       17.89631444      21.76128106      19.98124738       0.10108883      -0.25831153       0.09941704
H       17.61094368      20.37532933      21.05086097       0.00621786       0.02566289      -0.08343051
H       15.59707628      20.97237570      17.43718450       0.06693138       0.05670539       0.04768531
H       16.77436673      22.12616003      18.09326301      -0.04100369      -0.12230572      -0.09557822
H       17.80113578      20.78489737      16.26744402      -0.02696567      -0.05876434       0.00403786
H       17.38390211      19.27968929      17.13815050       0.00076718       0.18591643      -0.03829996
H       23.35003386      20.81700464      23.29109969      -0.19664670       0.03836622       0.12033081
H       22.22854310      21.55320440      24.46529781       0.04101625      -0.04635798      -0.04924106
H       22.79695312      19.29677180      25.26237216       0.03293623      -0.05106482      -0.02395175
H       22.36816672      18.59440664      23.69652824       0.06005187       0.03842731       0.04038636
H       20.44570549      20.01144787      25.61594789      -0.03889775      -0.08192515      -0.04018310
H       20.48206920      18.27708683      25.25897513      -0.05205929       0.02352424       0.04742773
H       12.59031170      18.15312927      18.57541297      -0.03432725       0.01186937      -0.02365472
H       14.09372443      19.99348662      18.15952197      -0.00981509       0.02310167       0.02242482
H       16.84507213      18.52726882      21.12266494       0.02582697       0.06691964      -0.00286074
