151
Properties=species:S:1:pos:R:3:MACE_forces:R:3 energy:=T -221.333788501122=T gnorm:=T 0.005463237119=T xtb:=T 6.7.1=T (edcfbbe)=T MACE_energy=-90873.4028116967 pbc="F F F"
C       11.25282849      15.33265866      24.74587511      -0.04874282       0.12293381      -0.40381744
N       12.12363064      13.07348505      23.33286876      -0.28239915       0.06629305       0.18794836
O       10.54852808      15.51119822      22.40965177       0.05261885      -0.13396580       0.14506134
C       11.67729929      15.44777734      23.28235383       0.01161390       0.20654550       0.16203791
N       13.28151915      16.26921177      20.46660482      -0.11480855       0.06117669       0.28509809
O       17.73040450      18.53673889      23.38832660      -0.11528336      -0.64785280      -0.36792696
C        9.98126295      16.79884116      22.29717095       0.13680925      -0.10755052       0.02704542
N       20.13504062      20.90223506      22.87190097      -0.33623042       0.17159124       0.11039626
O       22.44745581      17.06247326      14.22729417       0.32133821       0.60883452      -0.31894036
C       12.51012875      14.25096703      22.86386825       0.16349788       0.30068307      -0.24377754
N       21.48373989      21.03503711      22.52552741      -0.10349721      -0.23989196       0.99876686
O       22.84422888      22.32009843      16.59656132      -0.45885586      -0.06234958      -0.32645152
C       12.80970937      11.99090317      23.01469389       0.16141705      -0.20666080      -0.07444014
N       21.14615095      22.42189695      19.24377401       0.61818270      -0.49457736       0.16571831
O       19.29472465      23.70672282      19.08095294       0.00842853       0.11524412      -0.03771592
C       13.94980315      12.02146811      22.22560562      -0.03686749      -0.00180153       0.04213282
N       20.86004001      23.35881397      16.37269060      -0.15759671       0.36301838       0.15624630
O       18.90795517      20.62629536      17.78154648      -0.02614411       0.09387315       0.09797186
C       14.36220505      13.24504641      21.73237358      -0.13272861       0.04550782       0.04071204
N       22.15663478      19.14786469      13.38147337      -0.21319668       0.33912407      -0.18683032
O       23.01073227      21.41064451      20.91268794      -0.51991102      -0.13289382       0.11316904
C       13.63060212      14.39410123      22.03233813      -0.02711583      -0.43309289       0.11745443
N       27.24994436      16.43923703      12.59983054      -0.02629833      -0.05544971      -0.00021116
O       17.97356540      20.37446320      24.65423155       0.27755542      -0.26925033      -0.35052222
C       14.04467006      15.67347953      21.44388911       0.29403491       0.13346984       0.15147005
N       16.46668469      20.64656516      19.28231480       0.04131799       0.28657782       0.04765559
C       12.17293479      15.66255415      19.77447492      -0.20985346      -0.42991994      -0.33075439
C       12.64995956      14.76053744      18.63675842      -0.04465062       0.21722147       0.11902886
C       15.18573657      16.40993825      21.67741856      -0.10031378      -0.35524807       0.07524342
C       16.26927588      16.08072522      22.65534126      -0.13431097       0.06674376       0.09602971
C       16.17667770      16.78752994      24.02750034       0.25364167       0.15618657      -0.02855445
C       17.25411778      16.21152432      24.95156600      -0.10565983       0.10439861      -0.17979983
C       14.80288863      16.58315728      24.66115905       0.18165407       0.16947560      -0.13502986
C       16.39907494      18.29661969      23.86695949      -0.55430896      -0.06544182       0.33023119
C       18.40495618      19.55409783      23.87439375       0.23948259       0.93954591       0.39813702
C       19.83547947      19.56001033      23.36308947       0.04561302      -0.21319066       0.31495212
C       21.84036828      21.32188210      21.26453759       0.34007492       0.50394684      -0.88689120
C       20.68262860      21.54159926      20.28744934      -0.09915552       0.09113602      -0.02970353
C       20.43128968      23.42273272      18.72416066      -0.15719728       0.27060844      -0.04415045
C       21.15629325      24.13888294      17.57601717       0.05090575       0.18543950       0.17897254
C       20.79114026      25.62265615      17.45090143       0.11759760      -0.12902080       0.08331533
C       21.52646830      26.25278302      16.27043393      -0.21811048      -0.16912965       0.10105085
C       21.17230908      26.33424183      18.74879029      -0.21540970      -0.14366380      -0.07134652
C       21.78941922      22.48529601      15.97502639       0.94288137      -0.31722057       0.03469197
C       21.56814045      21.61063536      14.73456080       0.49162332      -0.36331728       0.33926455
C       20.99942577      20.26489683      15.19816080      -0.09344723       0.06316926      -0.28806124
C       20.86633335      19.30963901      14.01230695      -0.24016539      -0.19401328       0.39088849
C       22.88391760      18.03917710      13.61523653      -0.73888464      -1.02575076       0.53716661
C       24.21604298      18.02943086      13.07402702       1.16486148      -0.36635051      -0.24423181
C       25.35499906      17.85967196      12.72002104      -0.95589358       0.26288534       0.22418780
C       26.74517657      17.78171784      12.28583941       0.23401970       0.12277295      -0.17798992
C       27.04817377      16.03173916      13.97575064      -0.03954163      -0.03490035       0.13084390
C       28.61834414      16.19226053      12.19397996      -0.07512026       0.05485682       0.00858653
C       26.75467209      18.00315656      10.76366753       0.02417005      -0.00251947       0.09238392
C       27.50206091      18.93352537      12.98405807       0.00421450      -0.19502843      -0.02118422
C       22.70595389      20.37820001      12.86003282       0.18857222       0.35121775      -0.01645823
C       22.88687090      21.40441463      13.98245722      -0.12123813       0.01513955       0.00349568
C       19.50946905      23.47338598      15.86219223      -0.34447204      -0.03197944      -0.17388215
C       20.25412108      20.16930519      19.73438118      -0.29996913       0.17504314      -0.15710331
C       18.85978586      20.09866032      19.10423981       0.01955759      -0.14512125       0.30627434
C       17.76283978      20.81689595      19.91083917       0.21449148      -0.10004539      -0.05845885
C       16.54704115      21.20843439      17.94595478       0.20275105      -0.10453919      -0.23875279
C       17.64526652      20.49865998      17.14891701      -0.16146106       0.00708887       0.00144708
C       22.45398666      20.72034679      23.56288461       0.19805331      -0.19097902      -0.13984024
C       22.22336420      19.29016621      24.05160735      -0.10352049       0.21933914       0.12406930
C       20.77323683      19.12998829      24.50635939       0.05689408      -0.11236298      -0.28091637
C       15.14130262      17.51922192      20.77592606      -0.44098574      -0.02834665      -0.43320676
C       13.94184466      17.38913158      20.03951385       0.46173286       0.41593427       0.13378175
C       13.59695197      18.32805477      19.07710380      -0.10798016      -0.04157128      -0.11089459
C       14.45111002      19.37947516      18.85164871      -0.08821517      -0.02208203      -0.16444589
C       15.68374362      19.51621418      19.53024459      -0.03412748      -0.07671112       0.17744239
C       16.01934393      18.56976775      20.49209230       0.18138015       0.14728684      -0.06902101
F       20.68159448      22.20541367      13.83002615      -0.18375541       0.07036317      -0.16536364
H       12.12883377      15.21942636      25.37594875       0.03826444       0.00149450       0.10279929
H       10.71153536      16.22250749      25.05319352      -0.00452324       0.06375538       0.04925599
H       10.61557058      14.46218876      24.85960348       0.02004303      -0.02152406       0.05303208
H       12.27713298      16.35832116      23.13221116      -0.13242634      -0.24681195       0.02758092
H       10.73005940      17.52398579      21.95488123      -0.09566824      -0.02530960       0.01242599
H        9.18818235      16.71215124      21.55815371       0.00228199       0.11969715       0.05060820
H        9.55916840      17.14127069      23.24598165      -0.00626962       0.01632989      -0.06407705
H       12.42679078      11.06395901      23.41853324       0.07530948      -0.10227359      -0.02295143
H       14.48778423      11.11506686      21.99838410       0.02109724      -0.03137134       0.00587492
H       15.23613010      13.32228581      21.10120085       0.00464020       0.02767135      -0.00960576
H       11.57914765      15.08204512      20.48315625       0.12453334       0.28499915      -0.18053297
H       11.54497272      16.46354606      19.37899748       0.00937681      -0.11699221       0.15090830
H       11.79506360      14.37805535      18.08825766      -0.04119095      -0.08512036      -0.09477238
H       13.28917613      15.31740649      17.95519397       0.00740791      -0.02760020      -0.05950080
H       13.21386405      13.91999862      19.03433032       0.01075047      -0.02885450      -0.00777326
H       16.25719184      15.00458755      22.83980030       0.11436874       0.05979292      -0.00230272
H       17.23163653      16.34116642      22.21078065       0.02006688      -0.16193262       0.03595169
H       17.04643837      15.16487098      25.15891758       0.01027749      -0.07289369       0.02488741
H       18.23538990      16.28386633      24.48859473       0.04776790      -0.03236742       0.02457412
H       17.27405261      16.75058855      25.89614490       0.02767200       0.01465060       0.09002703
H       14.54552234      15.52722776      24.66358882      -0.04853400      -0.05531983       0.01578323
H       14.79828268      16.94605561      25.68605227      -0.02222675       0.00368115       0.07905293
H       14.04456600      17.12440381      24.10346171      -0.09040855      -0.01545309      -0.01107148
H       16.27814474      18.81603133      24.82154483      -0.02939175      -0.13498812      -0.18751418
H       15.69793701      18.71650523      23.14073557       0.13743371      -0.02956705       0.15450740
H       19.91652675      18.85584172      22.52933744       0.00721922       0.17034359       0.18571874
H       19.89303542      21.57607571      23.60036638       0.11923716      -0.12755918      -0.21646519
H       19.85809374      22.02643931      20.81063460       0.25194177      -0.13876753      -0.19178380
H       22.07750404      22.22883928      18.89481203      -0.14537176       0.14974584      -0.04249225
H       22.23605277      24.05657022      17.73508716      -0.29950477       0.06619231      -0.04912169
H       19.71226045      25.72082337      17.30985219       0.10740456      -0.05370527       0.02653652
H       21.23980741      27.29560305      16.16827671       0.02642557       0.07438732      -0.03954905
H       22.60078517      26.20325918      16.42964473       0.10411991       0.01309005      -0.01822799
H       21.29767823      25.74034136      15.34035217       0.01675231       0.00235834      -0.10095108
H       20.95356081      27.39555978      18.66881650       0.02618481       0.07114120       0.04486142
H       20.61083793      25.92921844      19.58686439       0.00738475       0.04555903       0.04111239
H       22.23433169      26.21238793      18.95148292       0.08330998       0.03607638      -0.00099090
H       21.69978586      19.84979199      15.92541083      -0.09380089       0.04386863      -0.03961958
H       20.04271917      20.40077505      15.69852050       0.09155031       0.03707396      -0.00406582
H       20.16372503      19.71487715      13.27953361       0.05738390      -0.09159255       0.05801007
H       20.52530217      18.32967203      14.34923981       0.03642239       0.22186399      -0.13050008
H       27.72697664      16.53457873      14.68157147      -0.05069242      -0.03131407      -0.03161910
H       26.02013945      16.22968208      14.27359695       0.10026812      -0.07360558       0.04483862
H       27.22419810      14.95849080      14.04321955       0.00379386       0.04701642       0.05946240
H       29.35435118      16.76655835      12.77634675      -0.00951341      -0.02998828      -0.05852102
H       28.82306382      15.13413278      12.34660070       0.06801831       0.02871481      -0.04226873
H       28.74362802      16.41429712      11.13906205       0.09634425      -0.01023923      -0.02221354
H       26.09818981      18.83170232      10.51181569       0.05066799       0.03346984      -0.03259936
H       27.75483271      18.24131766      10.41629814       0.07068605      -0.00407727      -0.05715092
H       26.39762114      17.10770705      10.26376603      -0.01424119      -0.00892450      -0.02131794
H       27.04357995      19.88321530      12.72334512       0.01827764       0.05578449       0.00509969
H       27.46256578      18.81760595      14.06462305       0.01419040       0.03361603      -0.00420923
H       28.54028410      18.94648833      12.66374142       0.05689426       0.02423482      -0.01056500
H       23.66255895      20.17030069      12.38074453      -0.21960824       0.07615766       0.02387434
H       22.00691353      20.77542301      12.11730702       0.16911965      -0.07956969       0.01948796
H       23.20562088      22.35847754      13.55986583       0.00456213      -0.03184680       0.08427124
H       23.63978303      21.07439168      14.69924795      -0.11264435       0.02685613      -0.12570438
H       19.44584975      24.24458499      15.09380462      -0.07697784      -0.08082228       0.04258936
H       19.16945556      22.53158466      15.44715505       0.03189225       0.13312408       0.03264222
H       18.85507954      23.73236619      16.69247955       0.05245580      -0.02234497      -0.07385025
H       20.98554603      19.86414624      18.98219072      -0.03897327      -0.05664766       0.14397027
H       20.28171587      19.44570465      20.54719268       0.01100911      -0.03706878      -0.04065539
H       18.58326226      19.03167092      19.02336714       0.03145748       0.20783232       0.06207811
H       17.96977889      21.89149769      19.89953454       0.06025733      -0.24728882       0.09219466
H       17.75094497      20.47249471      20.94311434      -0.01379907       0.07323457      -0.07720328
H       15.60436996      21.12882664      17.41425590       0.05601279       0.05871977       0.04164967
H       16.80756586      22.26617205      18.04901365      -0.05733908      -0.10788326      -0.08449684
H       17.74894208      20.93630406      16.15520228      -0.03946286      -0.07219447       0.05667469
H       17.39184754      19.42957961      17.05127128       0.00975784       0.20896483      -0.03899394
H       23.44688601      20.84352126      23.13168451      -0.17785476       0.03384827       0.10849698
H       22.32104886      21.42922209      24.38683277       0.05552787      -0.04865964      -0.07402793
H       22.90192478      19.07291558      24.87498050       0.03153007      -0.04884785      -0.04184796
H       22.43324842      18.59465669      23.23698126       0.06339984       0.02481590       0.03267513
H       20.57724025      19.76013460      25.37759726      -0.02956881      -0.05570493      -0.07393556
H       20.56834024      18.09391008      24.77750769      -0.02651756       0.04341784       0.05163555
H       12.67631613      18.24501108      18.51744667       0.00600232       0.05565377      -0.01073008
H       14.14948828      20.12185888      18.13234032       0.00402395       0.03597880       0.00725375
H       16.95677480      18.61942499      21.02272496      -0.02983103       0.04093709      -0.04031855
