151
Properties=species:S:1:pos:R:3:MACE_forces:R:3 energy:=T -221.333248866071=T gnorm:=T 0.008466417630=T xtb:=T 6.7.1=T (edcfbbe)=T MACE_energy=-90873.34650565895 pbc="F F F"
C       10.83771417      15.84196472      24.98397614      -0.07707693       0.06920049      -0.38243328
N       11.71764037      13.36364044      23.98299848      -0.27747521       0.04850053       0.17799838
O       10.06827910      15.45998319      22.67873820       0.07396291      -0.10930212       0.17502137
C       11.20934790      15.66648498      23.51034401       0.01672330       0.20007931       0.11367620
N       13.01194147      16.15859902      20.71860226      -0.09388675       0.07563725       0.28407063
O       17.46075610      18.59268976      23.55378444      -0.15031390      -0.68745958      -0.34347556
C        9.20090177      16.56882810      22.58826379       0.09082528      -0.14241218       0.02976504
N       19.95927744      20.80305075      22.93383840      -0.30672582       0.20415623       0.09080641
O       23.13920276      17.23325213      13.15899208       0.32072820       0.56988689      -0.12497556
C       12.09970608      14.45230177      23.33072245       0.17735089       0.26937852      -0.32350375
N       21.31889567      20.87423346      22.61252004      -0.14741337      -0.15809602       0.99718715
O       23.07929403      22.28028542      16.65695762      -0.56758340      -0.07657769      -0.47015040
C       12.44371976      12.26445620      23.89754154       0.12697112      -0.20822873      -0.00338931
N       21.06793385      22.05362923      19.24983525       0.58824897      -0.50608679       0.24343840
O       19.22766976      23.34702856      19.05577152       0.05812773       0.09752603      -0.03777674
C       13.61697495      12.18798882      23.16258247      -0.01503576       0.06524232      -0.00295819
N       21.00067510      23.11023639      16.39647252      -0.22459755       0.27207538       0.23709877
O       18.92476047      20.22976869      17.81646111       0.01433745       0.07600270       0.04468447
C       14.02200416      13.31778992      22.47700952      -0.12783731      -0.02057442       0.03828158
N       22.90392062      19.47770904      13.00150032      -0.25387202       0.51252150      -0.05073744
O       22.89207461      21.11759718      21.01894776      -0.52675934      -0.12132189       0.10545707
C       13.25671409      14.48363312      22.53909128      -0.06413668      -0.41767538       0.19018348
N       27.90599422      16.92085414      11.54939949      -0.03550199      -0.04003616      -0.05265021
O       17.75473134      20.49187598      24.71396181       0.27936943      -0.31743268      -0.31598419
C       13.71699195      15.65819240      21.78918525       0.33326077       0.18259358       0.12668051
N       16.41380196      20.26970092      19.20423970       0.07837377       0.24824893      -0.00983749
C       11.89781641      15.50432847      20.07849405      -0.26338905      -0.42137645      -0.24750330
C       12.35927162      14.31434117      19.23744864      -0.06089162       0.18208552       0.04187971
C       14.88618583      16.36675070      21.96709337      -0.14741634      -0.33610104       0.08926689
C       15.91903095      16.12393944      23.02082434      -0.12803342       0.08331653       0.11035218
C       15.78920928      16.99068549      24.29531744       0.24576733       0.13692289      -0.05866309
C       16.78244022      16.47954424      25.34206505      -0.07587376       0.14332947      -0.17346963
C       14.37210744      16.91953718      24.85882452       0.21769541       0.12769136      -0.12391534
C       16.09493138      18.45993704      23.97744268      -0.57745507       0.00698525       0.34126501
C       18.16999436      19.60279888      24.00322957       0.27586388       0.97175712       0.35333323
C       19.61561884      19.51888333      23.53892529       0.02196173      -0.16600267       0.32131592
C       21.71150299      21.06446504      21.34526813       0.37652133       0.43104554      -0.95422094
C       20.58384452      21.22068776      20.32356437      -0.12077021       0.06573868      -0.03214355
C       20.37692876      23.07206646      18.73268000      -0.22271247       0.28234363      -0.10919217
C       21.14787608      23.84310234      17.65233195       0.06447064       0.27992730       0.19989907
C       20.70708883      25.31103013      17.55356708       0.12365460      -0.13286863       0.05411652
C       21.39736956      26.00703443      16.38333998      -0.15161886      -0.22718277       0.11164552
C       21.06207605      26.01526256      18.86250850      -0.22102486      -0.17539167      -0.06827063
C       22.05052927      22.39643758      15.97989648       1.07515283      -0.24489100       0.16370059
C       22.00515143      21.67428087      14.62556305       0.43832425      -0.31096311       0.35593508
C       21.49797958      20.24348949      14.83579552      -0.06936402       0.12612518      -0.24443311
C       21.55702368      19.46452560      13.52235035      -0.28764154      -0.31504263       0.28386195
C       23.60364594      18.33934559      12.87866419      -0.68058952      -1.18849188       0.29523157
C       24.95029292      18.45972293      12.38654437       1.09571793      -0.28928963      -0.30529544
C       26.08968198      18.35444310      12.01068974      -0.88061402       0.26494459       0.25087914
C       27.47324997      18.32402975      11.54513176       0.23287501       0.11909652      -0.14761330
C       27.78988258      16.26940175      12.83801056      -0.05412679      -0.04196814       0.09127530
C       29.20580886      16.66211211      10.96680396      -0.06138057       0.07581409      -0.01863569
C       27.47028442      18.87774101      10.11024439       0.06605077      -0.03303672       0.07671824
C       28.30078330      19.25503841      12.45670508      -0.06307322      -0.16703175      -0.04460708
C       23.41665861      20.79806334      12.72752652       0.16620806       0.38768599       0.05965682
C       23.40091425      21.65499631      13.99564378      -0.14487849      -0.01052407      -0.03490947
C       19.67702960      23.11414803      15.80876963      -0.30863156      -0.01717699      -0.23433377
C       20.17356864      19.81919523      19.83702874      -0.30503860       0.24590456      -0.21049566
C       18.81046129      19.73418736      19.14627543      -0.02281058      -0.17559062       0.32764274
C       17.67872411      20.47665629      19.88038218       0.24459807      -0.06894632      -0.04813075
C       16.54298923      20.77967359      17.85156365       0.20544564      -0.10793743      -0.22351154
C       17.69845894      20.07874609      17.12382183      -0.19878792       0.01486860       0.01508256
C       22.25831998      20.63471267      23.69585534       0.20845897      -0.19454379      -0.10718282
C       21.98065090      19.26257051      24.30756008      -0.11775346       0.22449456       0.09762881
C       20.51702182      19.18202717      24.73947164       0.04766897      -0.14095489      -0.25947016
C       14.91776116      17.35791540      20.93894447      -0.38876883      -0.06985615      -0.43808120
C       13.73789574      17.18774049      20.17926478       0.46541808       0.41796626       0.08958836
C       13.47531732      18.02316513      19.10164304      -0.06808788      -0.01416336      -0.11872508
C       14.38116300      19.01126877      18.79766954      -0.06818105       0.00131391      -0.19188388
C       15.58769953      19.18972539      19.51331440      -0.05623468      -0.06692889       0.18615101
C       15.84882469      18.33695434      20.58043341       0.14661997       0.10271573      -0.06623837
F       21.15876690      22.34146809      13.73282294      -0.14089131       0.04100867      -0.15789825
H       11.74044667      15.85642891      25.58663634       0.00772590       0.03122828       0.07206682
H       10.30338044      16.77655970      25.13490227       0.00691576       0.02095263       0.04129059
H       10.21680695      15.00739973      25.29531969       0.02126969       0.00272009       0.03178377
H       11.74184636      16.56272583      23.15040951      -0.11087925      -0.25238058       0.07854467
H        9.76098386      17.48282462      22.37430856      -0.03000623       0.06140922      -0.02156126
H        8.52243562      16.35519337      21.76560351      -0.01555425       0.09497427       0.04338064
H        8.62293142      16.70366022      23.50449303      -0.00435300       0.05277883      -0.02456217
H       12.06770686      11.41465642      24.45098694       0.06907925      -0.09107187      -0.01471414
H       14.18849611      11.27471740      23.12507139       0.01768237      -0.03888969       0.00573186
H       14.92096889      13.30720685      21.87700870       0.00332063       0.02769878      -0.00550260
H       11.18909265      15.16490927      20.83881261       0.17371349       0.22063121      -0.26341318
H       11.39933584      16.23941246      19.44213523       0.01116840      -0.10205472       0.21270659
H       13.10332399      14.62881583      18.50912050       0.01677213      -0.02088358      -0.04668063
H       12.79815562      13.55107531      19.87641082      -0.00823288      -0.01636500      -0.03262259
H       11.51295381      13.87988057      18.71217388      -0.01952720      -0.06873862      -0.04360586
H       15.86323717      15.07875716      23.33166175       0.12541043       0.07651276      -0.01083759
H       16.90711918      16.30128277      22.59270947       0.01690441      -0.14974806       0.05139009
H       16.52174546      15.46869799      25.64335499       0.00003532      -0.07951806       0.03646440
H       17.79228118      16.47188111      24.93862606       0.04838309      -0.04374263       0.03075396
H       16.76646441      17.11688692      26.22391450       0.02478562       0.00936760       0.08634453
H       14.08526078      15.88208026      25.00881938      -0.04798075      -0.04781568       0.02366208
H       14.31445434      17.43991274      25.81150234      -0.03145742       0.01654694       0.08696850
H       13.66713996      17.37714479      24.17130628      -0.10438642      -0.00644709      -0.01359830
H       15.94451808      19.09253396      24.85738995      -0.01366838      -0.17368499      -0.19289246
H       15.45678043      18.81867021      23.16650590       0.11989561      -0.00695862       0.14452560
H       19.69948831      18.74086106      22.77448649       0.00630165       0.16722741       0.15865885
H       19.71862690      21.54669066      23.59159181       0.11541798      -0.15787104      -0.19219850
H       19.73971599      21.72619842      20.79390651       0.28108869      -0.14846582      -0.18355344
H       22.02204504      21.87887442      18.96041285      -0.11383657       0.17496262      -0.05424223
H       22.21473836      23.81247821      17.89858616      -0.31670917       0.04588407      -0.09743674
H       19.62256907      25.34990938      17.42452605       0.11943703      -0.03376492       0.01053290
H       21.12717492      27.05734780      16.37069633       0.00669155       0.13272485      -0.04388007
H       22.47782698      25.92918434      16.48476225       0.08247348       0.02495297      -0.02009160
H       21.11341124      25.57064789      15.43069093       0.02506572      -0.00954505      -0.09842098
H       20.75258007      27.05569254      18.82205528       0.01691286       0.08060900       0.04730097
H       20.55879902      25.54001413      19.70083143       0.00740001       0.04804986       0.05464250
H       22.13555872      25.97759557      19.03376365       0.08694495       0.03889074       0.00758669
H       22.14283812      19.77498751      15.58077233      -0.06920631       0.02685273      -0.05046320
H       20.47872877      20.24728408      15.22334999       0.08969292       0.02905336       0.03407617
H       20.88855090      19.92578811      12.78830274       0.04851314      -0.09639863       0.07181591
H       21.26542512      18.42467040      13.67963574       0.03328116       0.25722602      -0.09344599
H       28.58294814      16.55951398      13.54172543      -0.02986087      -0.00383800      -0.00135919
H       26.82295902      16.49664004      13.28278881       0.07134148      -0.08088051       0.01595453
H       27.85044340      15.19347232      12.68376809       0.01533959      -0.00642417       0.06988742
H       30.03883864      17.05941155      11.56577118      -0.00772192      -0.01733500      -0.05017768
H       29.32494428      15.58203655      10.89621334       0.08490549       0.03939056      -0.01373014
H       29.26098044      17.07111158       9.96247652       0.07397553      -0.01246497      -0.00491875
H       26.86885085      19.78302825      10.07256272       0.06206150       0.00143415      -0.02586929
H       28.47960323      19.12185042       9.78995666       0.02468440       0.00428134      -0.03501805
H       27.04213462      18.14175161       9.43575696      -0.01954509       0.00769356      -0.02304109
H       27.91169945      20.26738763      12.39323801       0.02050078       0.05618559       0.02525438
H       28.24479949      18.92929940      13.49231884       0.01571281       0.02748761       0.00768883
H       29.33955817      19.26040612      12.14096251       0.09282404       0.00932998      -0.02816568
H       24.43346687      20.71627089      12.34356304      -0.22044811       0.04789470       0.01383930
H       22.78174584      21.26819037      11.96867540       0.15100850      -0.06182505       0.01690469
H       23.69304545      22.67644568      13.74892541      -0.01295310      -0.03822041       0.08433990
H       24.09706893      21.26858550      14.73867807      -0.06031025       0.02197664      -0.11201503
H       18.95513490      23.26844212      16.60805943       0.03957467      -0.02108549      -0.05787297
H       19.57293895      23.90760024      15.06793133      -0.05797297      -0.09172746       0.06085782
H       19.46017692      22.16211960      15.33599474      -0.00037197       0.12428247       0.03514521
H       20.93210527      19.46484372      19.13668007      -0.01314772      -0.05796940       0.13483648
H       20.15487331      19.14723290      20.69240608       0.00537073      -0.06455124      -0.00341928
H       18.53129190      18.66538115      19.08146087       0.04490767       0.23802261       0.05811901
H       17.88129791      21.55183026      19.83538380       0.05981648      -0.25290047       0.09257649
H       17.62767548      20.17495295      20.92411500      -0.00902699       0.06939193      -0.08145534
H       15.62925279      20.64997745      17.27948422       0.06507360       0.06590069       0.05309293
H       16.76734262      21.84891131      17.92582678      -0.05986544      -0.12200952      -0.09424136
H       17.84954460      20.51138988      16.13438621      -0.05004150      -0.06380942       0.03655623
H       17.46622776      19.00604991      17.02218549       0.00465040       0.17898119      -0.03700409
H       23.26174010      20.69613411      23.27718507      -0.16204141       0.03790378       0.09658573
H       22.12881636      21.41885054      24.44837802       0.04306918      -0.04081685      -0.05438903
H       22.63500126      19.10558688      25.16312817       0.03398920      -0.05312246      -0.02544379
H       22.18952529      18.49040605      23.56556779       0.06567862       0.01329597       0.02347347
H       20.31912692      19.90147950      25.53733446      -0.03809801      -0.05981915      -0.04852786
H       20.27939131      18.18468295      25.10816592      -0.02872965       0.02102364       0.05607791
H       12.57787651      17.92107359      18.51016633      -0.02608095       0.01926839      -0.01419828
H       14.13899628      19.67519513      17.98432806      -0.00040552       0.01861731       0.01218654
H       16.76199672      18.40710856      21.14798577       0.00315380       0.04686046      -0.04311385
