151
Properties=species:S:1:pos:R:3:MACE_forces:R:3 energy:=T -221.333225365373=T gnorm:=T 0.005932474520=T xtb:=T 6.7.1=T (edcfbbe)=T MACE_energy=-90873.34645133103 pbc="F F F"
C       11.44687542      15.87407232      24.91143302      -0.10450945       0.03459878      -0.37417482
N       12.08187856      13.37371296      23.79941450      -0.21530295       0.09895854       0.18751951
O       10.51136524      15.64684646      22.64955815       0.03200755      -0.07572986       0.16867223
C       11.71318109      15.72383789      23.41370113       0.06485639       0.20354854       0.11597456
N       13.20124011      16.19490415      20.54630084      -0.06055783       0.01320732       0.28882507
O       17.91698413      18.32648966      23.11357071      -0.17340106      -0.62667579      -0.45215980
C        9.74929323      16.83600732      22.63153806       0.18883688      -0.15701683       0.04451710
N       20.30269649      20.65033528      22.54973867      -0.30034747       0.22346687       0.17573685
O       22.32395047      17.24664802      14.21269068       0.35924902       0.67380941      -0.29029748
C       12.48286867      14.44619799      23.13282006       0.15331367       0.23979193      -0.33759698
N       21.61972661      20.82053609      22.10830818      -0.01001462      -0.32686149       0.97744947
O       22.70868048      22.46618241      16.46365634      -0.46166876      -0.04371307      -0.32886452
C       12.70971049      12.22544744      23.61787328       0.11868346      -0.23718593      -0.03327378
N       21.04134111      22.40386900      18.95333588       0.67436309      -0.56474936       0.12133871
O       19.19753206      23.71265424      18.99230486      -0.00796208       0.11461876      -0.03671298
C       13.79017543      12.07899596      22.76124712      -0.02838294       0.04909458       0.02410236
N       20.73717769      23.51464765      16.20253685      -0.14150935       0.38013238       0.14480940
O       18.74392320      20.73808452      17.54540238      -0.01116542       0.04987485       0.12323293
C       14.21322240      13.19177538      22.05682500      -0.15383512       0.00610203       0.05700953
N       22.15435133      19.30994267      13.27788786      -0.24240739       0.28336574      -0.26007281
O       23.01949485      21.32090079      20.41727166      -0.55990101      -0.14919029       0.13989324
C       13.55495901      14.40884490      22.22642587      -0.07929669      -0.37996428       0.15097185
N       27.25986757      16.63844812      12.72542569      -0.03241929      -0.01060294      -0.03278729
O       18.35557047      19.99009280      24.55394111       0.26387991      -0.26415391      -0.43753426
C       14.00913372      15.58843872      21.48115758       0.32480667       0.12250119       0.10573845
N       16.40037969      20.50409951      19.17931576       0.07002783       0.26137861       0.02248199
C       12.03249849      15.60020401      19.94709639      -0.24328694      -0.41044227      -0.23911696
C       12.41702227      14.59797886      18.86053678      -0.06417892       0.19099784       0.10600987
C       15.20745622      16.26034963      21.59058271      -0.11061317      -0.31621825       0.04234536
C       16.36607512      15.88460500      22.46084508      -0.09453565       0.07762512       0.14279274
C       16.41930161      16.56124358      23.84989635       0.23963525       0.14098847      -0.07506009
C       17.58535433      15.96613981      24.64527904      -0.11852532       0.13525075      -0.13282767
C       15.11613010      16.34344605      24.61502426       0.20221480       0.15006082      -0.15874472
C       16.62615672      18.07243115      23.68877554      -0.51700855      -0.07420943       0.42718044
C       18.67923713      19.25238245      23.64765616       0.26889339       0.94518388       0.52902230
C       20.05739746      19.28359785      23.00746344       0.08035941      -0.21181776       0.28261891
C       21.87821361      21.19308610      20.84623705       0.31679191       0.57581616      -0.88297590
C       20.65282337      21.45697009      19.96844530      -0.08598259       0.09872670      -0.05648936
C       20.31179501      23.44909943      18.55833866      -0.21309976       0.27037440      -0.00450252
C       21.00187636      24.24910914      17.44310318       0.08641536       0.20191321       0.19155078
C       20.59734075      25.72658438      17.38823231       0.11447654      -0.14115355       0.09747529
C       21.33395786      26.43457304      16.25315283      -0.19446117      -0.14800810       0.09853094
C       20.94628485      26.38360497      18.72425448      -0.23411003      -0.16342609      -0.07092010
C       21.67573503      22.65070986      15.80963158       0.95858893      -0.33260058       0.02616131
C       21.49887328      21.80850474      14.53733188       0.41544441      -0.36985283       0.38620508
C       20.83055334      20.48542236      14.93247429      -0.07488881       0.07459723      -0.27977488
C       20.80416545      19.51311984      13.75109817      -0.27289006      -0.18104498       0.37745676
C       22.84398185      18.21808689      13.65945382      -0.73437866      -1.01819035       0.43394140
C       24.25394699      18.22866729      13.36864605       1.08104794      -0.38281087       0.03910045
C       25.44328121      18.07302498      13.26231265      -0.91758251       0.26530402      -0.09721039
C       26.89221245      18.00942158      13.10743739       0.30016991       0.14000933      -0.00071234
C       26.69313777      15.60624860      13.57058537      -0.09574099      -0.11863560       0.08704826
C       28.68184021      16.41775530      12.55668415      -0.07111046       0.02037093      -0.03386025
C       27.25623032      18.98537796      11.97430372      -0.01609962      -0.07227223       0.07100778
C       27.51780399      18.49403570      14.43335889       0.05217343      -0.13516720      -0.08369998
C       22.76837634      20.51758247      12.77787430       0.17737076       0.37567354       0.01928746
C       22.86647763      21.56149270      13.89140396      -0.13232613       0.00356906      -0.02673586
C       19.39849756      23.64417147      15.66593567      -0.28030560      -0.05327639      -0.13266402
C       20.20826060      20.11228346      19.36421813      -0.28551515       0.23614167      -0.18331180
C       18.78651533      20.06849121      18.80258976       0.04656152      -0.20056857       0.27667260
C       17.72527633      20.66505559      19.74258316       0.22856785      -0.07523918      -0.08632908
C       16.37286726      21.19651654      17.90531881       0.19548700      -0.04164833      -0.24822075
C       17.45166482      20.63373028      16.97226484      -0.16478915       0.03446198       0.03635214
C       22.67692220      20.46574557      23.04327686       0.17267477      -0.17310363      -0.19630210
C       22.49917253      19.01107635      23.47477600      -0.10542959       0.21361435       0.13583938
C       21.09469235      18.81798147      24.04354057       0.03617471      -0.09420093      -0.25656038
C       15.14056406      17.35506848      20.67052370      -0.48028952      -0.04833408      -0.40595903
C       13.88358280      17.26348229      20.03036800       0.48166924       0.41992693       0.08068144
C       13.51062035      18.19992928      19.07688605      -0.05765529       0.00775932      -0.08961274
C       14.37136486      19.23470219      18.79899106      -0.10357234       0.00186164      -0.17059609
C       15.63618854      19.36202104      19.41638445      -0.03185061      -0.11730121       0.18980147
C       16.02054270      18.38723344      20.33285095       0.17443886       0.13284265      -0.06297154
F       20.70754381      22.46683882      13.58989310      -0.16095202       0.06761102      -0.19479488
H       12.37992720      15.77788883      25.45712158       0.02909810       0.02034000       0.08822234
H       11.01305864      16.84633164      25.12771226       0.00394355       0.04225122       0.04014995
H       10.76760263      15.08838525      25.22875521       0.03405003       0.00428632       0.04867057
H       12.29794304      16.58547611      23.04898066      -0.14245364      -0.25756227       0.09643623
H       10.38232743      17.69866326      22.39786228      -0.06243820       0.00881623      -0.00477780
H        9.00931071      16.70277935      21.84780291      -0.05141798       0.10638483       0.02395017
H        9.24286507      17.00393643      23.58494702       0.00587539       0.05031386      -0.05252877
H       12.32779061      11.39149218      24.19184610       0.06701946      -0.08442961      -0.03340989
H       14.27747759      11.12400754      22.64791477       0.01840268      -0.03531340      -0.00518655
H       15.03926815      13.12574797      21.36389585       0.02833596       0.03217526      -0.01205852
H       11.44667480      15.10073313      20.72190147       0.12917819       0.26578559      -0.22497620
H       11.42536148      16.40293215      19.52389801       0.01403696      -0.11530259       0.16283707
H       11.52191473      14.17819095      18.41168207      -0.04233399      -0.07891018      -0.08124426
H       13.00830029      15.08168207      18.08742995       0.02864315      -0.01204908      -0.06853250
H       13.00261911      13.78880746      19.29090047       0.00360723      -0.03756023      -0.01010629
H       16.34945512      14.80494573      22.62385377       0.11526313       0.08129991      -0.02042329
H       17.28851064      16.13569757      21.93147911      -0.01362419      -0.16566150       0.04936921
H       17.39343401      14.91773174      24.86406561       0.01538812      -0.03480738       0.01137352
H       18.51114555      16.03821599      24.07777194       0.03078695      -0.04025964       0.04092436
H       17.71170818      16.49714468      25.58775219       0.03854967      -0.01846572       0.05622558
H       14.88157237      15.28320612      24.65722590      -0.05895383      -0.05642262       0.02437692
H       15.20242176      16.72123017      25.63025071      -0.01188168       0.02612036       0.09617904
H       14.29862627      16.85988823      24.12196067      -0.11303172      -0.00542257      -0.00417027
H       16.57232081      18.58525198      24.65383587      -0.03705597      -0.15024467      -0.22493908
H       15.87546633      18.48946628      23.01421328       0.12216133       0.00049074       0.13439387
H       20.06463786      18.61802433      22.13889242       0.01918669       0.15611510       0.18808495
H       20.11556955      21.28766197      23.32679098       0.10244091      -0.14240210      -0.24236947
H       19.85990134      21.89813483      20.57139429       0.21422293      -0.12533686      -0.18258169
H       21.94944810      22.23605336      18.53217817      -0.15214433       0.18410612       0.00729476
H       22.08395902      24.19603773      17.60369436      -0.31736708       0.05807545      -0.05725425
H       19.51788817      25.80602531      17.24013723       0.10369374      -0.04739362       0.01889803
H       21.05507167      27.48493617      16.22872544       0.01601872       0.04889763      -0.04813524
H       22.40895749      26.36915778      16.40913795       0.07043846       0.01171155      -0.02302944
H       21.10358660      25.99312061      15.28789407       0.02394204       0.00241496      -0.10325931
H       20.69238338      27.43956928      18.69534804       0.02803821       0.07603555       0.03954178
H       20.39045555      25.91867573      19.53425851       0.01719998       0.04594293       0.04029240
H       22.01005700      26.28763311      18.93108553       0.08642553       0.02962458      -0.00362496
H       21.42006712      20.05500964      15.74441570      -0.09260018       0.02478613      -0.05671867
H       19.82329996      20.65981994      15.30867229       0.12874816       0.03129554       0.01779337
H       20.20169706      19.92185987      12.93617443       0.04237567      -0.08861303       0.06915955
H       20.39938822      18.54958633      14.06398224       0.05372650       0.21094381      -0.13290303
H       27.18913742      15.52808135      14.55130801      -0.05421514       0.00342710      -0.07706269
H       25.63216734      15.79347375      13.72968529       0.10646194      -0.10902965       0.01140370
H       26.80204079      14.64917422      13.05861412      -0.01304929       0.03244714       0.09913671
H       29.23787153      16.43923801      13.50565739       0.00670808       0.01936066      -0.06372683
H       28.81396500      15.43171531      12.11153350       0.07787774       0.06638019       0.02188237
H       29.10027195      17.15447019      11.87801920       0.09436515      -0.02497588       0.00419826
H       26.76904524      19.94110579      12.15125862       0.05476875       0.03315562      -0.01583666
H       28.32836819      19.15135656      11.93234283       0.05247574       0.01407491      -0.00881220
H       26.91496839      18.58243972      11.02447550      -0.00296703       0.01282399       0.00490506
H       27.10776038      19.46504860      14.69999903       0.04295070       0.00848883       0.02508264
H       27.29919494      17.79529115      15.24001641       0.01901358       0.06383359      -0.02591676
H       28.59656372      18.58705109      14.32309371       0.00346430      -0.00018870       0.04027284
H       23.75859127      20.28611535      12.38683009      -0.20140793       0.07861299      -0.00412537
H       22.14036896      20.90482505      11.96949690       0.16562031      -0.08631824       0.02881692
H       23.23981358      22.50314041      13.48689239      -0.00460079      -0.02201810       0.09255704
H       23.54683359      21.22737599      14.67423220      -0.06650514       0.02900885      -0.13008191
H       19.33095052      24.50125199      14.99648443      -0.08466188      -0.06318430       0.01574670
H       19.10526336      22.75215151      15.12587405       0.02614263       0.11391533       0.03837196
H       18.71330019      23.77930066      16.50138080       0.01677947      -0.00193981      -0.07175110
H       20.90612250      19.85418472      18.56343579      -0.04222131      -0.05609287       0.15047195
H       20.27825785      19.34807189      20.13515077       0.00511670      -0.06886826      -0.02209512
H       18.53038805      19.00743502      18.62281811       0.02435217       0.22389397       0.09461386
H       17.89991938      21.74329203      19.82126296       0.06792244      -0.24349372       0.06390835
H       17.79378837      20.22575397      20.73500967      -0.01738850       0.08243839      -0.06655461
H       15.40334450      21.12399781      17.42397667       0.05044351       0.05253264       0.03144719
H       16.59268197      22.25169387      18.10056380      -0.07133941      -0.12052459      -0.09699366
H       17.48194999      21.19620655      16.03819841      -0.03805714      -0.08133197       0.03706746
H       17.23336143      19.57577159      16.75735605      -0.01501538       0.16551557      -0.02764357
H       23.62578030      20.62402860      22.53166214      -0.16365606       0.01746411       0.14643139
H       22.61125569      21.13055596      23.90982998       0.04397678      -0.03230794      -0.05391738
H       23.24682528      18.75937960      24.22495034       0.03174982      -0.05061194      -0.04305213
H       22.64140627      18.36038938      22.60994570       0.06736071       0.02110120       0.03364796
H       20.96943025      19.41372637      24.95150189      -0.03028273      -0.07340917      -0.07579879
H       20.92056683      17.77096225      24.29207632      -0.02597783       0.02818407       0.05486804
H       12.56144701      18.14130689      18.56717190      -0.05419347       0.02447282      -0.01435187
H       14.04011795      19.97592771      18.09211197       0.00740987       0.04497383      -0.00316828
H       16.98814062      18.41252579      20.80648963      -0.01023646       0.05636840      -0.02781296
