151
Properties=species:S:1:pos:R:3:MACE_forces:R:3 energy:=T -221.333635650506=T gnorm:=T 0.003979450389=T xtb:=T 6.7.1=T (edcfbbe)=T MACE_energy=-90873.41154200633 pbc="F F F"
C       11.04839735      15.52776595      24.78669739      -0.07111001       0.07669227      -0.40239150
N       11.96576317      13.18747171      23.57588658      -0.25490474       0.06217460       0.17840073
O       10.41283231      15.53761797      22.41944089       0.05589605      -0.14812821       0.13729079
C       11.51153638      15.54537336      23.33026823       0.03054377       0.21591439       0.15980631
N       13.18436975      16.23377058      20.56150866      -0.12354917       0.09463735       0.27373273
O       17.69049722      18.43723900      23.55370350      -0.05521374      -0.71049602      -0.25416064
C        9.80417615      16.79725590      22.23672277       0.12669568      -0.13326291       0.03109224
N       20.03567755      20.87426392      22.82114818      -0.32878103       0.17760829       0.11959814
O       22.68924800      17.03360846      14.16870067       0.36861150       0.66801728      -0.34517662
C       12.35798213      14.32454659      23.02085499       0.14813831       0.26988644      -0.27191793
N       21.39801176      21.00679798      22.53297849      -0.14440779      -0.22545288       0.96049895
O       22.99778231      22.38626672      16.59744956      -0.42469221      -0.09677008      -0.30525795
C       12.66412731      12.08611774      23.36570825       0.13891098      -0.21971904      -0.04682869
N       21.15806335      22.29175647      19.19734559       0.61101978      -0.53686664       0.19699018
O       19.35698783      23.64994684      19.12657254       0.05303707       0.10721282      -0.07380143
C       13.81534981      12.05597397      22.59451064      -0.01044867       0.04067455       0.00730403
N       20.96473999      23.32915267      16.39408407      -0.14174944       0.33051561       0.17197915
O       18.91694416      20.56076348      17.79251892       0.00464375       0.08206272       0.10828223
C       14.22978644      13.23651560      22.00517056      -0.14042954       0.03303142       0.03206196
N       22.39096012      19.15584724      13.42328833      -0.25777968       0.33151189      -0.15119856
O       22.98527877      21.36986314      20.97489455      -0.54290199      -0.14171270       0.09831653
C       13.49405370      14.40477861      22.20116821      -0.05308923      -0.41200536       0.12661452
N       27.45366608      16.55444111      12.20181269      -0.01602281      -0.05953866      -0.02045865
O       17.74843774      20.50958643      24.41094851       0.34638182      -0.40877435      -0.32132697
C       13.93433259      15.64616032      21.55367574       0.33781321       0.13903063       0.18193640
N       16.46925010      20.51480014      19.28849398       0.06380962       0.29318807       0.02259771
C       12.12517063      15.58749115      19.82752455      -0.17294866      -0.44175330      -0.30220244
C       12.69032123      14.67496097      18.74000503      -0.08117152       0.19313594       0.08626216
C       15.08668776      16.36787502      21.77894896      -0.13478410      -0.38037700       0.05225960
C       16.15359644      16.03142735      22.77182771      -0.11653474       0.08033441       0.11356598
C       16.05417377      16.74435247      24.14045979       0.26019181       0.14857066      -0.03341523
C       17.08593632      16.12745905      25.08874551      -0.08811051       0.14663496      -0.16769938
C       14.65741406      16.59392909      24.73919058       0.19346061       0.16209895      -0.13670126
C       16.33468048      18.24284990      23.98506993      -0.55868104       0.01185738       0.29092281
C       18.27600915      19.57776167      23.84175965       0.10733191       1.10671223       0.28599989
C       19.73346721      19.57651050      23.41484506       0.00984816      -0.14081465       0.30071584
C       21.80293343      21.26519577      21.28049769       0.42343790       0.46354220      -0.90906760
C       20.67968318      21.44032930      20.25798639      -0.12935226       0.11534447      -0.04250484
C       20.47848258      23.34586159      18.73816701      -0.25237618       0.28589844      -0.05185567
C       21.21454059      24.09265436      17.61854981       0.07704897       0.23645786       0.18159672
C       20.82134803      25.57134792      17.50731183       0.11242414      -0.12644941       0.10231981
C       21.60203540      26.24275318      16.38008155      -0.19357980      -0.19960939       0.07231008
C       21.11111905      26.27005292      18.83539823      -0.20626312      -0.16821457      -0.02235121
C       21.93489051      22.50809276      15.98103429       0.89731389      -0.25080862       0.02170948
C       21.74086414      21.62546318      14.74158576       0.49900254      -0.35555423       0.35513843
C       21.19005438      20.27506213      15.21785413      -0.08133969       0.07484410      -0.31854248
C       21.09629536      19.29119381      14.05173161      -0.23371228      -0.20571918       0.36571419
C       23.11465416      18.03220241      13.58361788      -0.72619012      -1.05528402       0.55738909
C       24.42554954      18.04426407      12.98901465       1.07047612      -0.39180004      -0.25894225
C       25.53708372      17.90231016      12.54751404      -0.87188748       0.27265804       0.26741266
C       26.87477711      17.88098652      11.96132598       0.16656294       0.12697968      -0.18208753
C       27.53757695      16.19740006      13.60325090       0.00313936      -0.01867553       0.13307676
C       28.70936682      16.29248238      11.52925761      -0.07595719       0.05664815      -0.00480203
C       26.69531538      18.12230234      10.45313158       0.06787014      -0.02901896       0.09068205
C       27.66898889      19.05296057      12.57972338      -0.00061826      -0.20237006      -0.02522703
C       22.90840758      20.39270172      12.88867237       0.20570493       0.38220502       0.00422667
C       23.06956770      21.42688286      14.00635314      -0.15474128      -0.01052151       0.00126244
C       19.61822408      23.41147438      15.86784698      -0.33277565      -0.05280036      -0.18040896
C       20.25092321      20.05522018      19.74271619      -0.29220317       0.23471853      -0.18203054
C       18.86424170      19.99456363      19.09827719      -0.00367082      -0.17892791       0.31845499
C       17.76149386      20.68857364      19.91847002       0.25346859      -0.08351124      -0.06116210
C       16.53907420      21.09697312      17.96149646       0.19741485      -0.07276321      -0.23546709
C       17.66075853      20.43900843      17.14906526      -0.19400213       0.01527001       0.00535379
C       22.33168501      20.78137754      23.62548479       0.21797935      -0.16848726      -0.12788427
C       22.08243172      19.40021759      24.22921809      -0.11409867       0.23459343       0.11412764
C       20.61586326      19.28215826      24.64152021       0.08149743      -0.16450157      -0.27342994
C       15.06716947      17.45863582      20.85349702      -0.42335061      -0.04265728      -0.43247743
C       13.86938830      17.33267598      20.11365019       0.45390539       0.41701815       0.13098378
C       13.54593423      18.25992283      19.13331494      -0.05007537      -0.00992704      -0.10863794
C       14.42400758      19.28728234      18.88714037      -0.08090083       0.01319255      -0.18942706
C       15.65891346      19.41480623      19.56337885      -0.06990822      -0.12101989       0.18040675
C       15.96723848      18.48519694      20.55230209       0.16757121       0.15290495      -0.06211385
F       20.85582391      22.20165355      13.82418913      -0.17932108       0.04668631      -0.15976050
H       11.91099267      15.49189384      25.44439375       0.02676098       0.01311032       0.09752914
H       10.46978783      16.41881332      25.01297333       0.01338218       0.06404759       0.03816222
H       10.43725735      14.64592631      24.95156319       0.02495412       0.01330239       0.05106545
H       12.11264659      16.44758515      23.13573540      -0.13967132      -0.24744996       0.03827684
H       10.54277043      17.54258577      21.92246356      -0.05624428       0.01015414      -0.00667350
H        9.06464998      16.66013548      21.45186516      -0.01797491       0.11634169       0.03563354
H        9.30859753      17.14351113      23.14625400      -0.01795401       0.03814317      -0.03244177
H       12.28062620      11.19608826      23.84531753       0.07521231      -0.10361256      -0.02384812
H       14.36510696      11.13933363      22.45410234       0.00819001      -0.04555112       0.00802686
H       15.11212188      13.26307897      21.38173649       0.01393181       0.03107708      -0.00477704
H       11.51022071      15.00954230      20.52063651       0.11933208       0.27648065      -0.17959635
H       11.50143753      16.36307299      19.37924159      -0.00680861      -0.10830855       0.16218163
H       11.88053000      14.21693434      18.18037436      -0.03423802      -0.07489724      -0.08272013
H       13.31532471      15.24493070      18.05602822       0.01759895      -0.03077694      -0.04939412
H       13.29336379      13.88814002      19.18726868       0.00400170      -0.03341633      -0.00360806
H       16.12136202      14.95706143      22.96318880       0.12475429       0.07043142      -0.00687919
H       17.12642409      16.27225996      22.33882363       0.00671503      -0.15617914       0.03486616
H       16.85256477      15.08097629      25.26479048      -0.00410047      -0.08534925       0.03314370
H       18.08319012      16.19387751      24.66144429       0.05710685      -0.04377633       0.02920286
H       17.08204170      16.64654480      26.04477516       0.02933679       0.00740489       0.09076203
H       14.36605782      15.54711800      24.75285819      -0.04331742      -0.05310467       0.01890179
H       14.63623539      16.97546274      25.75689514      -0.02009669       0.00619295       0.08584059
H       13.93213624      17.14827746      24.15072097      -0.08917387      -0.01871843      -0.00782999
H       16.19624216      18.77070299      24.93381190      -0.00360533      -0.14456962      -0.18932291
H       15.66973268      18.68743348      23.23915452       0.12081494      -0.03261111       0.15370669
H       19.88232864      18.80056538      22.65761275      -0.01143710       0.16315126       0.15098277
H       19.73596944      21.60665755      23.46726472       0.12447771      -0.15581295      -0.18857711
H       19.84202532      21.94740858      20.73853435       0.28046836      -0.16670329      -0.18225022
H       22.08947664      22.09355678      18.85197499      -0.13951287       0.17623688      -0.01070000
H       22.29156866      24.02977230      17.80569450      -0.30879091       0.05289499      -0.06106518
H       19.74925540      25.64640708      17.31124466       0.10395234      -0.05021966       0.02009340
H       21.27472009      27.27170560      16.26341386       0.02564432       0.08357317      -0.04045668
H       22.66535960      26.24183406      16.61021593       0.07887040       0.01332067      -0.02038392
H       21.45949666      25.72543067      15.43476323       0.01746846       0.01617033      -0.08976755
H       20.88977633      27.33062292      18.75219210       0.03152602       0.07352580       0.03774141
H       20.49607751      25.85168111      19.62925093       0.03675966       0.06322196       0.00509844
H       22.15845383      26.15376643      19.11027617       0.05939205       0.04022518      -0.01874189
H       21.88746444      19.89205410      15.96394277      -0.07594935       0.01959440      -0.02031817
H       20.22046153      20.39848613      15.69765321       0.07692480       0.03870569       0.01178824
H       20.38111939      19.65587465      13.30850059       0.05940163      -0.08221044       0.07664464
H       20.78674851      18.30783082      14.40876748       0.02730485       0.21713100      -0.13778170
H       28.35197285      16.71421922      14.13502401      -0.08024721      -0.04010190      -0.03144935
H       26.59386834      16.42397737      14.09724950       0.09388628      -0.06840414       0.02793675
H       27.71389964      15.12441270      13.67449303       0.00400714       0.05209613       0.06319465
H       29.53711295      16.92353174      11.88582147      -0.01112736      -0.03687291      -0.03850200
H       28.97476281      15.25313108      11.71716596       0.04817555       0.04963951      -0.04505526
H       28.59520501      16.42223964      10.45743723       0.09952006      -0.00687591      -0.02194864
H       26.01047825      18.95158020      10.29794523       0.04225358       0.02754914      -0.02446006
H       27.64510693      18.36944008       9.98911417       0.05310399       0.00222706      -0.06111081
H       26.27943448      17.23445548       9.98624042      -0.01172436      -0.01867084      -0.02385842
H       27.18938219      19.99360136      12.32425376       0.01144846       0.05878123       0.00984217
H       27.70261257      18.96729404      13.66299283       0.02130717       0.02630049      -0.01169063
H       28.68350271      19.06092942      12.19010279       0.05866831       0.02752808      -0.01976058
H       23.86830362      20.20624276      12.40813913      -0.21684150       0.05547815       0.02210936
H       22.19802011      20.76986530      12.14634058       0.16409645      -0.06580209       0.00669094
H       23.39155789      22.37976545      13.58593764      -0.00322732      -0.00821444       0.07307167
H       23.81270829      21.09950633      14.73334069      -0.08120780       0.03637859      -0.11686107
H       19.53719892      24.21081837      15.13062113      -0.08236590      -0.07861652       0.03475288
H       19.31854443      22.47648736      15.40856816       0.02788501       0.12851597       0.04688796
H       18.94320115      23.61216680      16.69738055       0.03701346      -0.00197244      -0.06409969
H       20.98702745      19.71766459      19.01013379      -0.02583726      -0.05400045       0.13557373
H       20.25347011      19.35805286      20.57815032       0.01768349      -0.06018544      -0.02402205
H       18.59161376      18.92864312      18.98733215       0.02692745       0.21780212       0.07512630
H       17.95883998      21.76550465      19.92251097       0.06032577      -0.23976731       0.09230537
H       17.75837459      20.33233073      20.94592704      -0.02823780       0.07759506      -0.07947491
H       15.60245791      20.99420265      17.42301251       0.06146512       0.06552730       0.04377828
H       16.76505067      22.16197305      18.08037345      -0.06148583      -0.11986163      -0.09123560
H       17.76344568      20.92340861      16.17759061      -0.04366537      -0.07788898       0.03230712
H       17.42852246      19.37186069      17.00303442      -0.00589914       0.17404945      -0.03070188
H       23.33688335      20.86858364      23.21366474      -0.18492323       0.03056093       0.11208231
H       22.17958852      21.55940291      24.38058758       0.04330543      -0.04935032      -0.04964288
H       22.73099766      19.25657998      25.09181704       0.03273774      -0.04489629      -0.03189894
H       22.31805401      18.63571027      23.48699454       0.06329836       0.01562040       0.03441734
H       20.38436678      20.01022463      25.42290661      -0.03785245      -0.06668535      -0.03969094
H       20.39944453      18.28466847      25.02240361      -0.02801807       0.02327432       0.04210683
H       12.62426867      18.19611210      18.57529009      -0.03296534       0.01266681      -0.02459928
H       14.13737768      20.02171665      18.15292709       0.00651700       0.01965142       0.01396797
H       16.89934830      18.53034718      21.09205480      -0.00092425       0.02958313      -0.03628007
