151
Properties=species:S:1:pos:R:3:MACE_forces:R:3 energy:=T -221.333213869550=T gnorm:=T 0.008426487553=T xtb:=T 6.7.1=T (edcfbbe)=T MACE_energy=-90873.42672051623 pbc="F F F"
C       11.64971393      15.30745291      24.79891987      -0.10356377       0.07484427      -0.37199333
N       12.30513563      13.04884831      23.25471402      -0.23887167       0.04980053       0.23294155
O       10.60563902      15.38711665      22.57747137       0.07590320      -0.12073610       0.09964484
C       11.84339923      15.40956142      23.28417167       0.06796677       0.17096513       0.18416926
N       13.24522007      16.41461409      20.49573711      -0.09368937       0.03881747       0.26937487
O       18.03314760      18.20893014      23.27969720      -0.08679439      -0.70871525      -0.34976115
C        9.81873790      16.54813430      22.73089490       0.16394763      -0.14483909       0.00297772
N       20.23359861      20.79912027      22.66920716      -0.36966115       0.14500532       0.13114701
O       21.94727506      17.22396642      13.74599355       0.48538905       0.65393543      -0.19897232
C       12.65090533      14.23252742      22.77061619       0.11771538       0.26736593      -0.28035577
N       21.57030604      21.01685878      22.32178886      -0.09016716      -0.30250483       0.98112329
O       22.67896835      22.29348571      16.53169510      -0.40602724      -0.02544189      -0.35135092
C       12.95894845      11.96907830      22.86513183       0.10181009      -0.16625108      -0.11057863
N       21.13618481      22.51226542      19.07912968       0.60730397      -0.49907591       0.17657609
O       19.26254569      23.77412948      18.96688582      -0.02260236       0.11468950      -0.05473308
C       14.01380597      12.00768901      21.96717539       0.01651118       0.04477725       0.01398232
N       20.79236175      23.47075911      16.19660488      -0.15787906       0.31237325       0.13365457
O       18.79435050      20.86951334      17.75967625       0.03201606       0.03751035       0.07547695
C       14.38400718      13.23935002      21.45668423      -0.11570134      -0.02909727       0.04368908
N       22.06437232      19.37746365      13.04009600      -0.20463320       0.36427349      -0.23240331
O       23.05536760      21.57209449      20.72256121      -0.56359286      -0.13284930       0.11541049
C       13.69691531      14.38805637      21.84721079      -0.06747011      -0.40696957       0.07725928
N       26.94049968      16.22506807      13.40617657      -0.02316131      -0.06249751      -0.00685175
O       18.06788555      20.16508631      24.37593438       0.31425404      -0.33362279      -0.38788882
C       14.09669948      15.68736024      21.29446556       0.36556856       0.09137737       0.15867277
N       16.44274971      20.80290616      19.40321920       0.07100865       0.25214865       0.10866471
C       12.05958668      15.90252319      19.85470389      -0.21395757      -0.36000608      -0.33511437
C       12.40597940      15.17578120      18.55572800      -0.04522968       0.15743623       0.17473470
C       15.29140018      16.35678104      21.45654313      -0.11379494      -0.35733572       0.00771538
C       16.47506329      15.89849587      22.24941599      -0.13777394       0.04833673       0.14002440
C       16.51343469      16.37322699      23.72020894       0.24085762       0.17037524      -0.01923307
C       17.66321300      15.66437775      24.44062160      -0.15394019       0.12874748      -0.15167048
C       15.20031287      16.05377220      24.43070408       0.21892282       0.17885599      -0.13153388
C       16.72669933      17.88961588      23.78503781      -0.47619493      -0.05859114       0.33987522
C       18.59155449      19.33225640      23.66717252       0.12868047       1.08340767       0.41173586
C       20.01974004      19.44266170      23.16191209       0.03791762      -0.19689297       0.28155676
C       21.89471833      21.40589239      21.07972993       0.43120297       0.52835564      -0.93480271
C       20.71163542      21.63333382      20.13921300      -0.15620152       0.10706546      -0.04663094
C       20.38843720      23.49634784      18.57379065      -0.12066761       0.27416471      -0.01810041
C       21.07936184      24.22931203      17.41420329       0.08549919       0.23841760       0.25314732
C       20.68779334      25.70943164      17.31075860       0.12792393      -0.16567619       0.07912409
C       21.43315697      26.37335838      16.15504361      -0.21213382      -0.17392418       0.08210730
C       21.03038335      26.41637938      18.62089889      -0.22197504      -0.19810179      -0.04626070
C       21.69157458      22.55063257      15.83600562       0.87905957      -0.35631871       0.08395863
C       21.53500067      21.79281370      14.50899160       0.33622051      -0.40232521       0.31602082
C       20.73010378      20.50598896      14.72413791      -0.01272977       0.10700868      -0.20644642
C       20.70778019      19.66916074      13.44282772      -0.35457486      -0.21965746       0.29660784
C       22.60712854      18.18010720      13.33211900      -0.93399203      -1.00452588       0.30702344
C       24.02506144      18.05972013      13.12228308       1.05868853      -0.49104217       0.08022341
C       25.19904556      17.79393900      13.08340116      -0.86242017       0.37647657      -0.09348467
C       26.64450020      17.60528527      13.00441848       0.23752391       0.09974904      -0.12209892
C       26.42888160      15.86852779      14.71457329      -0.06666645      -0.03249849       0.10868569
C       28.32654563      15.82651846      13.27598390      -0.04639145       0.04250101      -0.04594416
C       27.04138612      17.82891657      11.53515874       0.02139334      -0.03774135       0.12397536
C       27.29773087      18.68807838      13.89073322      -0.07413757      -0.24049629      -0.09847515
C       22.82985586      20.55950503      12.72181014       0.22548752       0.34585149       0.06162303
C       22.92439716      21.47518583      13.94288189      -0.14715141       0.02349501      -0.01591009
C       19.46315534      23.63262624      15.64580381      -0.26746398       0.02105917      -0.14538717
C       20.23661180      20.27075390      19.60077160      -0.28731414       0.23909900      -0.18059424
C       18.81415512      20.24532594      19.04037679       0.02002004      -0.16699007       0.27393984
C       17.77454405      20.90892682      19.96096195       0.24049767      -0.07637826      -0.08879558
C       16.44642060      21.45265363      18.10647030       0.17671739      -0.03098404      -0.32684076
C       17.49678571      20.80508930      17.19507712      -0.16338457       0.05724433       0.04744043
C       22.57360810      20.74274379      23.33843975       0.24645394      -0.15360073      -0.14525254
C       22.41662667      19.30868630      23.84069632      -0.09695184       0.18942136       0.12960667
C       20.98052266      19.08309597      24.30931543       0.05381511      -0.12574779      -0.26722611
C       15.18309809      17.56344267      20.69817332      -0.47074411       0.01972679      -0.34869113
C       13.89741145      17.55583212      20.11263405       0.48213118       0.39169776       0.12196568
C       13.47302117      18.61745550      19.32380062      -0.04504426      -0.02785183      -0.08927604
C       14.34054200      19.65913389      19.11086635      -0.07906952       0.02412385      -0.15472283
C       15.65472284      19.67450063      19.63158048      -0.05282205      -0.10878795       0.16789254
C       16.06498885      18.61622771      20.43317086       0.10452244       0.13679405      -0.06215214
F       20.87818373      22.59545549      13.56768685      -0.12946878       0.07528417      -0.20670694
H       12.60630310      15.12699161      25.27936604       0.01402473       0.02468815       0.07490071
H       11.22566176      16.22520560      25.19449112      -0.01098546       0.05952495       0.05444146
H       10.98533479      14.47500840      25.01079295       0.04063564      -0.01465466       0.04231024
H       12.36882201      16.34575550      23.03558402      -0.11147139      -0.25356404       0.04176325
H       10.40542074      17.44668407      22.51196596      -0.05740450       0.01360888      -0.00285604
H        9.01085824      16.45109431      22.01061164      -0.04354884       0.13039488       0.05720475
H        9.40194354      16.62520300      23.73783601      -0.00816126       0.04127591      -0.03986249
H       12.61499625      11.03938443      23.29516547       0.06752049      -0.12315925      -0.02435044
H       14.52394765      11.10351420      21.67405910       0.00952637      -0.01543876       0.00360282
H       15.19372067      13.31817499      20.74485032      -0.00051454       0.04583637       0.00169569
H       11.55008093      15.22057967      20.53819677       0.08551391       0.30732990      -0.14984733
H       11.39443605      16.74370710      19.64819404       0.01712433      -0.14486959       0.14553370
H       11.50038991      14.80452706      18.08797859      -0.07527490      -0.06775665      -0.11091337
H       12.91161705      15.84796310      17.86723167       0.02129148      -0.00534448      -0.06825443
H       13.06144957      14.33255305      18.76188409       0.00717392      -0.02838642      -0.00367061
H       16.49503224      14.80671670      22.25786662       0.11170140       0.08666727      -0.01116734
H       17.38276320      16.25389099      21.75822127       0.01907093      -0.17217945       0.00367394
H       17.49069115      14.59151174      24.45093731       0.00262004      -0.08769183       0.01869365
H       18.60707370      15.86023690      23.94180588       0.09777152      -0.03991920      -0.01204166
H       17.73400087      16.00975335      25.46830649       0.05371787       0.01129049       0.13134791
H       14.94671171      15.00792981      24.28955455      -0.04682775      -0.09358956       0.02945010
H       15.28580070      16.25028534      25.49496518      -0.00957966       0.01822920       0.13187192
H       14.39447632      16.66001873      24.03155484      -0.12808007       0.01131735      -0.01934856
H       16.65865932      18.25482192      24.81492374      -0.01691299      -0.11198627      -0.21280172
H       15.98443257      18.41592847      23.17955612       0.11244551      -0.04676479       0.12171194
H       20.15691334      18.73888791      22.33507453      -0.00138670       0.17316451       0.16079800
H       19.93747410      21.45733907      23.39110489       0.13551628      -0.10168885      -0.18120307
H       19.91235122      22.13035993      20.69044077       0.24246465      -0.16046355      -0.16896359
H       22.03991752      22.30672079      18.66757640      -0.16831269       0.16881496      -0.01414240
H       22.16202993      24.16723093      17.56772644      -0.29754392       0.05840451      -0.06487333
H       19.60934164      25.78624418      17.15703566       0.10279075      -0.03962836       0.00424927
H       21.09948256      27.40072839      16.04037223       0.03319798       0.08003315      -0.04318111
H       22.50211511      26.37717141      16.35732795       0.07632960       0.01946649      -0.02201085
H       21.26906848      25.84964577      15.21747292       0.01491473       0.01299109      -0.09817041
H       20.77460221      27.46833819      18.54540023       0.03412012       0.12340967       0.05048352
H       20.47243585      25.98589068      19.44795794       0.00110396       0.04484152       0.03656202
H       22.09255347      26.32916546      18.83674315       0.10388285       0.03638995      -0.00465015
H       21.21294973      19.94337063      15.52532868      -0.06570414       0.04504720      -0.05443514
H       19.71356905      20.73291638      15.04228309       0.09007764       0.01561949       0.04886219
H       20.21201014      20.22295818      12.64053793       0.04318656      -0.11418767       0.08423598
H       20.18884613      18.72432144      13.61514973       0.09749721       0.24526510      -0.09733227
H       27.01410482      16.29851616      15.54189004      -0.05013473      -0.02677784      -0.04871273
H       25.39438978      16.19524028      14.80757307       0.07563356      -0.08443912       0.06131726
H       26.45511154      14.78299980      14.80879643      -0.00594148       0.05771297       0.06073300
H       28.99931780      16.35490852      13.96762220       0.00337480      -0.03466799      -0.04249256
H       28.38654075      14.76129284      13.49651555       0.07214672       0.05645690      -0.02226878
H       28.66890584      15.97883508      12.25662862       0.08479045      -0.01549956       0.02350817
H       26.56266813      18.73013375      11.16287274       0.04528987       0.03293028      -0.01654516
H       28.11629870      17.94730117      11.44022270       0.06776668      -0.00664610      -0.03045086
H       26.71202668      16.98422169      10.93762854      -0.00168609      -0.01311691      -0.03415452
H       27.01777725      19.67212943      13.53502326      -0.02255733       0.14744086      -0.04015108
H       26.96934892      18.59160418      14.91851931      -0.02323129       0.00603079       0.13014248
H       28.37566279      18.60039541      13.85239669       0.21923529      -0.00696961      -0.00330210
H       23.82801780      20.26991114      12.39358997      -0.21181032       0.08190415      -0.01526567
H       22.31856349      21.08458641      11.90889939       0.15187253      -0.09634673       0.04041652
H       23.41446764      22.41029022      13.66969693      -0.01326655      -0.03177788       0.08734851
H       23.50484528      21.00183225      14.73456269      -0.05443267       0.04702998      -0.12639638
H       19.41124927      24.50659230      14.99691938      -0.05644021      -0.06674936       0.01728365
H       19.16845212      22.75997878      15.07833326       0.00962199       0.09754436       0.01736938
H       18.76857714      23.75554789      16.47525585       0.00375891      -0.01299415      -0.05476326
H       20.92586208      19.95818028      18.81307418      -0.02819952      -0.05323550       0.12725300
H       20.28086574      19.54376128      20.40706530       0.02437785      -0.06830654      -0.03746556
H       18.52820506      19.18756560      18.89706554       0.02503110       0.20071780       0.07464038
H       17.99590820      21.97887595      20.01363053       0.05155933      -0.24552303       0.07406054
H       17.81669245      20.49021185      20.96464189      -0.01957129       0.07514623      -0.08298537
H       15.47293662      21.39816822      17.62579836       0.09288495       0.04687677       0.05448804
H       16.71046341      22.50355064      18.26380378      -0.06425232      -0.12524445      -0.09739598
H       17.55138364      21.32890307      16.24065882      -0.04835809      -0.07963378       0.02547717
H       17.22701043      19.75107046      17.02305306      -0.01189739       0.16331295      -0.04306353
H       23.54926784      20.90277773      22.87860625      -0.19802198       0.02525854       0.14224148
H       22.43811824      21.45086362      24.16262323       0.04191925      -0.04552352      -0.05931872
H       23.11133765      19.13292226      24.66130529       0.02822477      -0.03850984      -0.06067702
H       22.65403274      18.61462057      23.03147543       0.04646412       0.04108332       0.05045321
H       20.75676032      19.72141818      25.16789815      -0.02524670      -0.05781637      -0.05861207
H       20.82954376      18.04498774      24.60322667      -0.02676931       0.01321003       0.05189036
H       12.48347899      18.64220288      18.89722046      -0.08174276       0.02383853      -0.04746608
H       13.99125303      20.50255497      18.53853225      -0.01074218       0.02616535       0.00465485
H       17.05579994      18.58114141      20.85538770       0.02991924       0.05027675      -0.02861598
