151
Properties=species:S:1:pos:R:3:MACE_forces:R:3 energy:=T -221.333571397899=T gnorm:=T 0.007741610387=T xtb:=T 6.7.1=T (edcfbbe)=T MACE_energy=-90873.39610830822 pbc="F F F"
C       11.50394809      15.75293414      24.92966282      -0.12809434       0.06577806      -0.39097919
N       12.18647791      13.32894275      23.69535226      -0.20492760       0.13788387       0.18219477
O       10.57231206      15.67307385      22.66683862       0.06039012      -0.15620675       0.13046243
C       11.78014147      15.69446482      23.42749834       0.04362377       0.22839523       0.16023933
N       13.20144801      16.31087400      20.54936627      -0.11871840       0.03932332       0.28318060
O       17.99630210      18.42046153      23.09784968      -0.25100761      -0.55004798      -0.49646611
C        9.98180595      16.94160862      22.48557194       0.16343838      -0.16750842      -0.00815785
N       20.44869614      20.61185435      22.54883850      -0.25150857       0.21560702       0.12708551
O       22.25324382      17.14718805      14.23821709       0.40633854       0.78420393      -0.35453000
C       12.55779637      14.43989393      23.07416589       0.09298378       0.22822726      -0.28596397
N       21.74296460      20.71673471      22.02120613      -0.01866808      -0.27125107       1.01568472
O       22.66664528      22.41110878      16.33571200      -0.46306560      -0.07969543      -0.30672666
C       12.83632395      12.20498730      23.45522357       0.13627517      -0.27723355      -0.04112574
N       21.02668202      22.29729104      18.88783126       0.66704687      -0.54093289       0.11748892
O       19.18490769      23.60236920      18.99031228      -0.02563165       0.12809916      -0.05637386
C       13.90987917      12.11958737      22.58141181      -0.04743810       0.02976706       0.02339851
N       20.63885324      23.35936664      16.13105910      -0.16082912       0.38859446       0.15610097
O       18.70470042      20.63406698      17.54844554      -0.00805663       0.08050753       0.06929616
C       14.29522735      13.26907593      21.91788856      -0.13420225       0.06558020       0.03109624
N       22.05420173      19.16756909      13.21495043      -0.25100448       0.20333481      -0.28300160
O       23.05655980      21.16986837      20.24952312      -0.55016155      -0.11577820       0.19043503
C       13.61313680      14.46323103      22.15009078      -0.05676375      -0.41944726       0.11748875
N       27.26980261      16.68133969      13.06347117       0.01931562      -0.01017981      -0.06716878
O       18.55602864      19.91142413      24.68134506       0.22049702      -0.19824900      -0.45118153
C       14.02958088      15.68284093      21.45082437       0.38350992       0.12281692       0.15023093
N       16.37587762      20.65171013      19.21719732       0.04893398       0.26397653       0.07095115
C       12.04541788      15.72012230      19.92219408      -0.21125873      -0.38921092      -0.30327973
C       12.44409909      14.86359139      18.72113614      -0.06422380       0.13521965       0.07721317
C       15.21424601      16.37537825      21.58008567      -0.12212997      -0.39123670       0.04556540
C       16.37741283      15.99520806      22.44203002      -0.13324449       0.09737517       0.11654241
C       16.44911175      16.68129868      23.82468719       0.24244345       0.13433926      -0.02640341
C       17.59510928      16.05379215      24.62424583      -0.11171597       0.16162018      -0.14424944
C       15.13838650      16.50547445      24.58846917       0.19347523       0.14822101      -0.15860027
C       16.69878605      18.18772421      23.66875753      -0.51905806      -0.06913883       0.41187215
C       18.82020479      19.24777770      23.70273672       0.37832833       0.76829002       0.57294691
C       20.18693011      19.25618745      23.03362910       0.10606633      -0.24264197       0.31773416
C       21.93906335      21.08086595      20.74628204       0.27608981       0.55395911      -0.96263405
C       20.67503339      21.37200755      19.93650470      -0.13825625       0.07051802      -0.02521359
C       20.27673703      23.33307631      18.50575414      -0.17460412       0.27989340      -0.00351384
C       20.90789902      24.12475625      17.35118639       0.08928837       0.23126973       0.18206299
C       20.44176175      25.58387015      17.27953496       0.10502006      -0.12178867       0.08331857
C       21.08861300      26.29166860      16.09103910      -0.14538202      -0.16564039       0.10064036
C       20.82693628      26.29063578      18.57887383      -0.24812696      -0.15754182      -0.08606771
C       21.60649871      22.53905174      15.71392430       0.93640402      -0.28810413      -0.01828933
C       21.41890022      21.67610471      14.45720899       0.48968673      -0.36567624       0.41655396
C       20.77549244      20.35198721      14.88674272      -0.07092417       0.06538432      -0.32031238
C       20.71165869      19.37607991      13.71039265      -0.25112210      -0.18373994       0.37257917
C       22.76363923      18.10981036      13.65732314      -0.79536475      -1.13350598       0.45911866
C       24.18027299      18.14925476      13.40956343       1.05661648      -0.28439841       0.17489230
C       25.38065610      18.06037770      13.40352883      -0.85984651       0.22534505      -0.26516706
C       26.84008584      18.05363097      13.36285684       0.23741295       0.13153267       0.10618190
C       26.77609601      15.69288705      14.00107181      -0.07019724      -0.10036818       0.08367411
C       28.69152860      16.50634421      12.84572143      -0.07759935       0.06310927       0.01782472
C       27.26911321      19.01277228      12.24127089      -0.02321718      -0.06638582       0.08079048
C       27.32982396      18.59767601      14.72318681       0.03229488      -0.13671342      -0.07790957
C       22.65810355      20.36886402      12.68853012       0.22021206       0.40432335       0.03971011
C       22.77447461      21.42979582      13.78551401      -0.13083108      -0.02398538       0.00405837
C       19.28177644      23.43645579      15.63303173      -0.27687615      -0.06848657      -0.14816198
C       20.15750704      20.03246952      19.38020358      -0.30352563       0.26828723      -0.14793305
C       18.72544660      20.04438165      18.84501636       0.02806441      -0.19308945       0.31567431
C       17.71653153      20.76405641      19.75719940       0.23000833      -0.08503366      -0.10773861
C       16.37374494      21.26074957      17.90001718       0.19525019      -0.05755742      -0.27465930
C       17.40075509      20.56760939      16.99717886      -0.17124632       0.02386181       0.05193125
C       22.83999656      20.34808433      22.90136089       0.20641540      -0.19715111      -0.16441700
C       22.63343789      18.91787865      23.39726706      -0.10644809       0.19706924       0.13228582
C       21.25258250      18.79200882      24.03974281       0.00042862      -0.10975141      -0.28433549
C       15.12152774      17.49640774      20.69890671      -0.45011096      -0.00559961      -0.38927812
C       13.85722212      17.41509039      20.07385750       0.48418785       0.41160029       0.09799430
C       13.45157921      18.39170813      19.17427632      -0.08244969      -0.01398941      -0.10482234
C       14.30696033      19.43352439      18.90943879      -0.07839635       0.01367969      -0.17087962
C       15.59708209      19.52347422      19.48027351      -0.05034212      -0.09787041       0.17127684
C       15.99740665      18.53423146      20.37073967       0.12638206       0.11461658      -0.08248949
F       20.60473749      22.31459750      13.51687634      -0.19798979       0.07324005      -0.22174291
H       12.44159032      15.74343273      25.47532721       0.05157306       0.00832441       0.10086129
H       10.96035688      16.65956466      25.18101604       0.02317065       0.05517729       0.03317458
H       10.91467925      14.88680168      25.21317254       0.02675668       0.00764505       0.04840364
H       12.36733034      16.57307133      23.11737890      -0.12594134      -0.24079020       0.07130963
H       10.66686069      17.61669631      21.96407620      -0.01788699       0.04114640      -0.01183095
H        9.09831499      16.77474841      21.87753167      -0.04597413       0.10974537      -0.00917746
H        9.68905534      17.39568724      23.43208955      -0.04754454       0.03937190       0.04423337
H       12.47953963      11.33903125      23.99668699       0.06895660      -0.09282129      -0.03738727
H       14.42003547      11.18359521      22.42168193       0.00973437      -0.04736536       0.00014119
H       15.11274012      13.25327899      21.21139304       0.02037319       0.02838164      -0.00301967
H       11.51235966      15.11223212      20.65611249       0.09302723       0.28390532      -0.16211346
H       11.38462111      16.52768846      19.59958480       0.01658967      -0.12352665       0.16304023
H       11.55214855      14.47247735      18.23518545       0.03575952      -0.04818795      -0.04681236
H       13.00613152      15.46000707      18.00292639      -0.01849481      -0.07337092      -0.01408497
H       13.06394496      14.02615931      19.04212511      -0.03530101       0.04086915      -0.02979578
H       16.34460077      14.91819086      22.61568924       0.12809323       0.06170069      -0.01986473
H       17.29856028      16.22725031      21.90426262       0.02601599      -0.15055381       0.02711350
H       17.37380358      15.01198429      24.84043441       0.00339180      -0.07456830       0.02377723
H       18.52460184      16.09891870      24.06099733       0.04838249      -0.03640169       0.01773478
H       17.73477729      16.57963709      25.56650593       0.03532849      -0.00058041       0.08344663
H       14.87116973      15.45307264      24.63494950      -0.05230820      -0.05546694       0.02047604
H       15.23496460      16.88610794      25.60192555      -0.01736445       0.01376846       0.09064588
H       14.33705840      17.04442465      24.09172678      -0.10149508      -0.00467941       0.00615255
H       16.65463585      18.69209526      24.63802504      -0.04072987      -0.13008567      -0.21591235
H       15.96089983      18.62876521      22.99581266       0.13165398      -0.01086667       0.13742002
H       20.15966814      18.58204476      22.17233489       0.03751944       0.16975373       0.18186489
H       20.34921205      21.25968060      23.33366522       0.06850855      -0.14591734      -0.25789943
H       19.92646961      21.83864889      20.57797943       0.23369801      -0.14015299      -0.20283205
H       21.92435260      22.12857241      18.44618775      -0.13827302       0.17720563      -0.02375157
H       21.99485888      24.11480164      17.48450896      -0.31163494       0.04219015      -0.05452425
H       19.35308873      25.61448794      17.18882480       0.11915075      -0.04770388      -0.00860762
H       20.75254591      27.32420145      16.04657306       0.01681024       0.05957632      -0.03806428
H       22.17246219      26.28683775      16.19863043       0.03549049       0.01698009      -0.02662018
H       20.84028685      25.80897903      15.15005909       0.02535707       0.00417983      -0.09342008
H       20.53857022      27.33632299      18.53250912       0.01413909       0.10188764       0.02831694
H       20.32291463      25.83366272      19.42388208      -0.00991351       0.01974157       0.08879628
H       21.89895588      26.23450103      18.74095234       0.16329680       0.02892681       0.00138440
H       21.40765019      19.92792340      15.66818027      -0.08411392       0.01238913      -0.01013295
H       19.78848905      20.51647321      15.31224508       0.06443773       0.04706055       0.02364653
H       20.09459304      19.78459034      12.90667705       0.05186556      -0.09703958       0.06948793
H       20.31097729      18.41527566      14.03637004       0.04487236       0.21338886      -0.13685342
H       27.31015037      15.70429603      14.96390850      -0.05029428       0.00079937      -0.06593676
H       25.71538348      15.85456709      14.18664950       0.07847502      -0.09516666       0.02248089
H       26.90151581      14.70584342      13.55620219      -0.01693710       0.01389168       0.07964975
H       29.29411633      16.65355177      13.75520140      -0.00877452       0.00036666      -0.06917603
H       28.84862805      15.48540602      12.50010861       0.07649974       0.05205373       0.01341744
H       29.04062449      17.18218601      12.07174629       0.09358113      -0.01641050      -0.00409677
H       26.71659461      19.94451939      12.33602904       0.04847237       0.01229450      -0.01191980
H       28.32908106      19.23796665      12.30915234       0.05939108       0.00685410      -0.01500541
H       27.05079010      18.56942448      11.27410515      -0.00269428      -0.00083995      -0.02868857
H       26.98183216      19.61898493      14.85705007       0.02016063       0.01405661       0.02444558
H       26.94092809      17.99530922      15.54179826       0.04886048       0.03707246      -0.01394694
H       28.41642522      18.59079560      14.75835358       0.05275992       0.01673258       0.02233967
H       23.64406725      20.13427855      12.28803196      -0.21115297       0.07082851      -0.00980923
H       22.01961721      20.74200011      11.88297749       0.14609115      -0.08142017       0.02471498
H       23.13386709      22.36724973      13.36078326       0.00337661      -0.00665839       0.09103975
H       23.47623272      21.10684201      14.55548473      -0.09735251       0.04957895      -0.13776124
H       19.14332530      24.33141866      15.02597804      -0.06237903      -0.08623588       0.01519725
H       19.02814716      22.56858464      15.03661954       0.03929822       0.12757387       0.07072037
H       18.61099591      23.47535664      16.48912641      -0.01339117       0.00936858      -0.04459856
H       20.82258948      19.71666983      18.57367792      -0.00321522      -0.05433236       0.13652149
H       20.20421218      19.29097592      20.17468540       0.00905582      -0.06311790      -0.02427895
H       18.40093489      18.99309945      18.73463521       0.04582111       0.22053828       0.07302742
H       17.95682011      21.83134939      19.76846459       0.05753731      -0.25901961       0.07161820
H       17.76726148      20.38087675      20.77402600      -0.01083604       0.06733536      -0.06125576
H       15.39371757      21.21456959      17.43564332       0.05815994       0.05616589       0.03334035
H       16.65969304      22.31031175      18.02448650      -0.07791552      -0.12407416      -0.08675712
H       17.45027113      21.05423209      16.02308988      -0.04042856      -0.06924786       0.02818951
H       17.11553622      19.51127208      16.86513295      -0.00638988       0.18585202      -0.04294111
H       23.76154269      20.44743877      22.32824474      -0.16036760       0.03265715       0.15128883
H       22.85958696      21.04418177      23.74605172       0.02730561      -0.03866800      -0.06315574
H       23.41033142      18.66622314      24.11738886       0.01979589      -0.04312786      -0.04280260
H       22.70853273      18.23001247      22.55279813       0.07316561       0.02914520       0.02884853
H       21.18596512      19.42128665      24.93021320      -0.03768573      -0.06699799      -0.05675072
H       21.05855857      17.76088385      24.33425553      -0.02174402       0.01855525       0.05439501
H       12.48237722      18.35589234      18.70027510      -0.03347976       0.02326063      -0.01645914
H       13.96046882      20.21240513      18.25055407       0.00215791       0.01882518       0.00570832
H       16.97562042      18.54327486      20.82178734       0.00623229       0.05855958      -0.03832839
