151
 energy: -221.333788501122 gnorm: 0.005463237119 xtb: 6.7.1 (edcfbbe)
C           11.25282848839125       15.33265865616988       24.74587510799791
N           12.12363063916168       13.07348505434396       23.33286875693657
O           10.54852808132111       15.51119821740421       22.40965176844035
C           11.67729929236219       15.44777734381125       23.28235383138571
N           13.28151914915645       16.26921177445746       20.46660482314425
O           17.73040449740618       18.53673888923164       23.38832659637854
C            9.98126294839182       16.79884116271588       22.29717094782710
N           20.13504062211938       20.90223505667842       22.87190097228701
O           22.44745581228947       17.06247325980357       14.22729416698689
C           12.51012874677919       14.25096703277490       22.86386824626750
N           21.48373988520627       21.03503711169179       22.52552741351330
O           22.84422888461114       22.32009843086852       16.59656132374664
C           12.80970936659462       11.99090317449820       23.01469389067535
N           21.14615094728287       22.42189694620980       19.24377401449153
O           19.29472464926703       23.70672281778782       19.08095294426479
C           13.94980315276773       12.02146811061422       22.22560561805446
N           20.86004000588856       23.35881397471775       16.37269059680189
O           18.90795516704831       20.62629535541621       17.78154647810097
C           14.36220505195664       13.24504640952239       21.73237357706222
N           22.15663477507772       19.14786469476526       13.38147336923367
O           23.01073226782684       21.41064450946616       20.91268794018413
C           13.63060212098031       14.39410122827360       22.03233812722930
N           27.24994435789847       16.43923702550153       12.59983054155659
O           17.97356539937766       20.37446320012408       24.65423155464643
C           14.04467006103397       15.67347953456668       21.44388911227438
N           16.46668468632041       20.64656516000814       19.28231479720434
C           12.17293478894470       15.66255415232135       19.77447492059737
C           12.64995955559999       14.76053743750260       18.63675841688183
C           15.18573656680027       16.40993825424384       21.67741856193426
C           16.26927588000664       16.08072522064693       22.65534126441254
C           16.17667770411393       16.78752993613145       24.02750033651539
C           17.25411777847638       16.21152431731406       24.95156600295473
C           14.80288862986799       16.58315728299384       24.66115905293219
C           16.39907494400291       18.29661968500290       23.86695949207257
C           18.40495617520323       19.55409782624709       23.87439374971825
C           19.83547946757733       19.56001032950000       23.36308946923915
C           21.84036828434924       21.32188209899205       21.26453758714518
C           20.68262860146513       21.54159925797477       20.28744933666449
C           20.43128968103873       23.42273272019088       18.72416066481287
C           21.15629325118370       24.13888294430297       17.57601717113845
C           20.79114026064162       25.62265615031785       17.45090142580716
C           21.52646829925192       26.25278302242007       16.27043393183683
C           21.17230907864461       26.33424183094259       18.74879028814332
C           21.78941922281174       22.48529601285324       15.97502638552662
C           21.56814044814184       21.61063536094860       14.73456080352324
C           20.99942576521380       20.26489682753226       15.19816080220038
C           20.86633335486331       19.30963901258982       14.01230695133554
C           22.88391759767038       18.03917710354400       13.61523652930713
C           24.21604298290816       18.02943085735068       13.07402702157896
C           25.35499905743060       17.85967196254792       12.72002103730368
C           26.74517656603897       17.78171783633925       12.28583941435826
C           27.04817377223392       16.03173916277339       13.97575064148885
C           28.61834413826797       16.19226053326789       12.19397996282541
C           26.75467208885150       18.00315655820443       10.76366753367190
C           27.50206090935930       18.93352536950704       12.98405807173912
C           22.70595389379799       20.37820000929161       12.86003282194557
C           22.88687090362565       21.40441463272485       13.98245721695419
C           19.50946905416827       23.47338598401148       15.86219223301375
C           20.25412107535187       20.16930519063202       19.73438118131484
C           18.85978586232750       20.09866031937602       19.10423980749784
C           17.76283977824737       20.81689594815996       19.91083916788116
C           16.54704114841244       21.20843438981856       17.94595477882745
C           17.64526652295658       20.49865998194250       17.14891700708968
C           22.45398666001841       20.72034678833126       23.56288461008754
C           22.22336420466614       19.29016621081106       24.05160734760249
C           20.77323682998467       19.12998829396069       24.50635939200472
C           15.14130261817905       17.51922191807994       20.77592605732289
C           13.94184466112545       17.38913158173978       20.03951384650027
C           13.59695197069709       18.32805477245522       19.07710380414933
C           14.45111001700893       19.37947515754601       18.85164870999673
C           15.68374361515757       19.51621417948271       19.53024459315487
C           16.01934392757919       18.56976774884729       20.49209230432551
F           20.68159447916326       22.20541366893732       13.83002615166616
H           12.12883377128916       15.21942636288375       25.37594875224780
H           10.71153535746307       16.22250749295962       25.05319352352124
H           10.61557057586637       14.46218875500185       24.85960347537110
H           12.27713297894151       16.35832116163924       23.13221116324861
H           10.73005939619026       17.52398578898210       21.95488123383554
H            9.18818235442757       16.71215124494457       21.55815371021316
H            9.55916840224357       17.14127068957973       23.24598164534613
H           12.42679077702723       11.06395901143071       23.41853323734234
H           14.48778422961467       11.11506685949915       21.99838409831380
H           15.23613009598539       13.32228581337393       21.10120085326593
H           11.57914764809015       15.08204512099290       20.48315625054602
H           11.54497272298610       16.46354605846735       19.37899747826134
H           11.79506360420180       14.37805535026625       18.08825765652977
H           13.28917612794666       15.31740649092720       17.95519396933713
H           13.21386404848510       13.91999862393238       19.03433032465600
H           16.25719183795827       15.00458754656271       22.83980029777246
H           17.23163652516392       16.34116642473411       22.21078064626975
H           17.04643836902073       15.16487098437770       25.15891758136555
H           18.23538990354238       16.28386633172807       24.48859472504541
H           17.27405260544203       16.75058854876428       25.89614490058311
H           14.54552233819285       15.52722775723890       24.66358882362106
H           14.79828267522638       16.94605561289410       25.68605227139251
H           14.04456600023874       17.12440381265325       24.10346171261686
H           16.27814473685008       18.81603132575385       24.82154482646881
H           15.69793700721939       18.71650522564919       23.14073557427896
H           19.91652674992659       18.85584171680651       22.52933744442200
H           19.89303541755106       21.57607571059452       23.60036637766500
H           19.85809373958986       22.02643930680001       20.81063460090613
H           22.07750404026017       22.22883928003614       18.89481203415197
H           22.23605276886486       24.05657022493430       17.73508715622140
H           19.71226045347613       25.72082336896906       17.30985219293388
H           21.23980741226156       27.29560304524312       16.16827671061832
H           22.60078516746088       26.20325918067277       16.42964473289055
H           21.29767822731810       25.74034135873934       15.34035216747308
H           20.95356080830855       27.39555977565744       18.66881649965788
H           20.61083792757481       25.92921844498203       19.58686438946288
H           22.23433168631852       26.21238792539850       18.95148291681513
H           21.69978585841773       19.84979198941848       15.92541082605627
H           20.04271916561969       20.40077505445104       15.69852049741967
H           20.16372503337865       19.71487714643106       13.27953360871037
H           20.52530216916267       18.32967203138712       14.34923980868409
H           27.72697664235250       16.53457872987932       14.68157147138124
H           26.02013944913539       16.22968208440944       14.27359695269935
H           27.22419809542415       14.95849080135477       14.04321954693593
H           29.35435118110576       16.76655834628486       12.77634675064745
H           28.82306382099566       15.13413277503802       12.34660070194581
H           28.74362801879035       16.41429711685011       11.13906205058334
H           26.09818980967624       18.83170232313257       10.51181569369403
H           27.75483270515770       18.24131766125400       10.41629814126280
H           26.39762114045118       17.10770704662194       10.26376603115066
H           27.04357995310814       19.88321530445591       12.72334512484354
H           27.46256577593304       18.81760594620387       14.06462304668910
H           28.54028410296106       18.94648832978253       12.66374141792749
H           23.66255894702100       20.17030069006624       12.38074452503479
H           22.00691352607140       20.77542300995439       12.11730702001102
H           23.20562088256516       22.35847754082524       13.55986582931173
H           23.63978303216228       21.07439167926622       14.69924794653761
H           19.44584975491134       24.24458499385907       15.09380461602121
H           19.16945555958496       22.53158465824568       15.44715504766369
H           18.85507953576134       23.73236619432937       16.69247954801622
H           20.98554602862796       19.86414624120013       18.98219071682401
H           20.28171586838601       19.44570465309594       20.54719268183451
H           18.58326226068901       19.03167092238177       19.02336713762672
H           17.96977888834417       21.89149769271232       19.89953453982365
H           17.75094496951847       20.47249470953936       20.94311434304359
H           15.60436996158018       21.12882664323757       17.41425589933945
H           16.80756585651108       22.26617204658686       18.04901364789352
H           17.74894207711223       20.93630406141278       16.15520227547593
H           17.39184753991092       19.42957961193756       17.05127128208089
H           23.44688601191299       20.84352126145296       23.13168450701433
H           22.32104885839029       21.42922208565559       24.38683277374042
H           22.90192477853095       19.07291558417563       24.87498049892378
H           22.43324841813098       18.59465669470899       23.23698126091718
H           20.57724024569042       19.76013460127866       25.37759726404360
H           20.56834023905463       18.09391008179085       24.77750768822232
H           12.67631613199658       18.24501107872975       18.51744667363631
H           14.14948828361151       20.12185887701524       18.13234031759698
H           16.95677480376140       18.61942499344275       21.02272495840313
