151
 energy: -221.333235327647 gnorm: 0.008753450369 xtb: 6.7.1 (edcfbbe)
C           10.98287376499477       15.81661650514657       25.18755242791492
N           11.71213988265781       13.40166322099072       24.01636249313923
O           10.06211436052493       15.59382815605601       22.91440547502905
C           11.25383890624009       15.73045313991566       23.68483304006649
N           12.91687814749457       16.28341924572048       20.76456895428270
O           17.46412843863359       18.55064117145692       23.45057003640713
C            9.15080011110516       16.66563296822461       23.03259268520796
N           19.86480271864251       20.86845008440597       22.95396205433195
O           23.33757901048149       17.23480766171142       13.31531616379606
C           12.09101531106106       14.50206483087999       23.38126653100162
N           21.22660618494110       21.01287073974839       22.67318747629689
O           23.06341749662963       22.37674434192311       16.78237083574442
C           12.38060287535821       12.27827551957987       23.83326498098495
N           21.00264276858380       22.11635892446918       19.28782269554036
O           19.10325338448324       23.31400469599962       19.03867052328580
C           13.48686255351229       12.18391966999188       23.00351150471639
N           20.95798028673622       23.09461313677253       16.43615156643378
O           19.08165638546933       20.08717198493508       17.77337792860636
C           13.88524923901474       13.32412843331930       22.33232510147819
N           23.03692952435006       19.47552011085832       13.13310211272632
O           22.83153258064465       21.31516261409490       21.11732833811790
C           13.18331861340311       14.51945673208644       22.50214874211700
N           27.98312343942437       16.91235831716485       11.40040724054611
O           17.64825401114527       20.38379827127161       24.73539742750510
C           13.65608210289368       15.69797712993680       21.76598980549213
N           16.50379407829582       20.11703906846759       19.01585602225076
C           11.69328257930827       15.77314375276702       20.19977726408312
C           11.96884702458215       14.79002423836109       19.06282911600898
C           14.88490788109068       16.31608963293063       21.87453378759505
C           15.97498135712917       15.99538312343186       22.84773925084121
C           15.93315425397629       16.80401462797870       24.16505787694997
C           17.05568803862432       16.31664194928360       25.08562186947761
C           14.58799427986916       16.62257171547777       24.86457291611256
C           16.11755180583465       18.30053272933536       23.87862299159170
C           18.11625605404135       19.56076605685198       23.97622080984366
C           19.57639568359999       19.56693731950639       23.55283103425782
C           21.64720429666156       21.19922010043619       21.41275309241706
C           20.54167537975992       21.26889921277080       20.35816119860360
C           20.27169270244071       23.09142775078132       18.74425954638446
C           21.02923726917326       23.87749623901294       17.66781879213035
C           20.51430059972337       25.31476225364425       17.51110286075149
C           21.26847284019165       26.03312919597529       16.39527796726456
C           20.70748416893005       26.05182982912499       18.83579521530682
C           22.05278438404494       22.41808745958002       16.07632180802842
C           22.07600955769040       21.64987768232400       14.74849015672931
C           21.60248619802758       20.20944073342942       14.96810180020071
C           21.69005226138314       19.43033774964327       13.65532792289145
C           23.76316663257629       18.35243178317350       13.01151618066512
C           25.08698053604345       18.49813791126215       12.46562830039086
C           26.19087519493154       18.34494249791764       12.00679269887707
C           27.54388623772043       18.31299687662367       11.46105680040965
C           27.75536498729556       16.15315946227167       12.61222955092654
C           29.33940956518412       16.71947814533109       10.93021272301796
C           27.46991213103049       18.88936124499152       10.03499436524365
C           28.41982278157420       19.22399533710606       12.34873742084786
C           23.53454734919936       20.80709461300399       12.88178240250860
C           23.49212711247053       21.64350714953006       14.16318163510129
C           19.65603784954045       23.02719636595655       15.80629085835062
C           20.23596303133908       19.83943302386971       19.87973991060854
C           18.91766984607851       19.66225828526964       19.12330622376486
C           17.71997894109900       20.40303270879449       19.74384937467223
C           16.67143772195913       20.48898691175846       17.62681575106235
C           17.91159396725948       19.80578395265712       17.03061172256630
C           22.14981598448100       20.83040545445766       23.78124139833571
C           21.92539555542943       19.45213985855434       24.40299720409277
C           20.45433138158226       19.29410849534115       24.78606059516606
C           14.91847041118153       17.33058428685418       20.86949373049827
C           13.67821332546377       17.26827274656686       20.19449448013201
C           13.39758659706225       18.13888097361787       19.14837239164408
C           14.35504513465686       19.05370740359538       18.78539018063897
C           15.62198045576045       19.11595694774271       19.41078836630889
C           15.89451518744273       18.24204425399980       20.45628824534857
F           21.24852272420726       22.27515573974168       13.80745270142265
H           11.92370695656079       15.74683496126396       25.72881040979141
H           10.50093037867905       16.75829007673982       25.44038934753810
H           10.34432019391270       14.98509680190689       25.47705600199620
H           11.78708811156210       16.63545423906507       23.34628397055249
H            9.65203909654040       17.62710787939590       22.88322659415620
H            8.41135119068281       16.50673929771745       22.25246865912320
H            8.65171581566728       16.66623107572744       24.00443285663495
H           12.01140100075713       11.42304124570837       24.38366524375155
H           14.01108437988541       11.25015071641605       22.88851564802753
H           14.73133348109921       13.30418759855101       21.66009031385090
H           11.11481282523448       15.28186246718663       20.98566273578821
H           11.11259920404356       16.62094653844625       19.82660865137938
H           12.49730020021925       15.28635222417557       18.24786268953707
H           12.57857785794227       13.95923149739165       19.42413569031638
H           11.02624914714439       14.39311395172814       18.68394368411264
H           15.92385056084628       14.93713050464400       23.11126140571550
H           16.93644154402392       16.18289985862980       22.36589206953829
H           16.88010237492189       15.28387394097707       25.37334742519505
H           18.01809044735088       16.37704178992452       24.58400955959773
H           17.09603293025750       16.92432759763692       25.98738092451550
H           14.38714841644357       15.56494965093554       25.01574576283831
H           14.58804410330710       17.11917394047686       25.83133397607234
H           13.79109178111179       17.04337701370778       24.25982747262066
H           15.92676042685655       18.89785803394639       24.77521350585312
H           15.44764047405444       18.62760391135498       23.08087726785934
H           19.73314132599054       18.79350488730744       22.79471909248180
H           19.56527266978559       21.59667814809601       23.60492186086773
H           19.65355408206305       21.72614025179514       20.79726196898945
H           21.96747041876046       21.98937966434519       19.00613601827789
H           22.08807894703790       23.91532016664225       17.94652457091783
H           19.44547558094191       25.29148542231871       17.28387373691541
H           20.89151006708173       27.04586807681007       16.28538518710183
H           22.32869033651915       26.08297998596618       16.63533331164524
H           21.15957395586739       25.51912840300494       15.44424752172935
H           20.38270498527352       27.08356781003640       18.73926319684211
H           20.12431825070049       25.58218133883004       19.62323988439404
H           21.75434312483272       26.04188659166909       19.12721297606591
H           22.25286985684807       19.75914924262026       15.71941223869290
H           20.58249097927229       20.18519144807539       15.35074097598737
H           21.01254485589052       19.87628694644559       12.91886638073582
H           21.42165538466816       18.38348393259427       13.81041203136515
H           28.40348066945368       16.46064439720417       13.44831226854549
H           26.71631129200039       16.25007691159013       12.92118357228453
H           27.95390458559609       15.10332162400042       12.39865745665017
H           29.50356818394778       17.28086792015097       10.01302106796643
H           30.10202406439254       17.00370952412129       11.67417997038094
H           29.46566600286614       15.65740916005037       10.70836456529594
H           26.84683932987313       19.77962779614157       10.03024981219450
H           28.45922195953419       19.16103825331061        9.67724423366854
H           27.03568487989974       18.14990105432491        9.36790432756623
H           28.01151617204890       20.23006819596472       12.35370913415598
H           28.44172553364297       18.85402347056877       13.37148252964434
H           29.43432695613319       19.25739753156038       11.96162310152052
H           24.55702729249437       20.74306821027947       12.50900638928124
H           22.90194470483068       21.27952076285158       12.12302425070023
H           23.79559516282531       22.66831613766008       13.94624060193648
H           24.16653050922901       21.23756456103463       14.91734757193244
H           18.90076615072613       23.13496710411305       16.58353495552473
H           19.53408760112170       23.82140479155670       15.06822488299723
H           19.50722302677821       22.06864078931923       15.31877307974051
H           21.04839840512676       19.51451754464460       19.22637189519884
H           20.21046060464485       19.18341572469060       20.74822646052754
H           18.68332392993667       18.58213759100862       19.10416217711516
H           17.89375940362918       21.48084464179078       19.64620728920129
H           17.60818661973070       20.15577406593601       20.79789134603777
H           15.80330039722779       20.21000368658301       17.03628071393044
H           16.80848568945764       21.57546372512411       17.58101891826611
H           18.09586899841233       20.16555915709210       16.01742710802036
H           17.75049844355201       18.71613078041109       17.00575013980441
H           23.15862827934295       20.93457870402658       23.38259945958127
H           21.96673731460315       21.61599135098363       24.52132798844034
H           22.55592598568688       19.34435936461857       25.28346591309485
H           22.20274789111868       18.68254496678811       23.68135516266484
H           20.18740008761995       20.01363282114707       25.56290924693088
H           20.26009325359016       18.29074509488390       25.16436906180738
H           12.44825797846092       18.11645181937341       18.63455511220350
H           14.11706330933907       19.76138359041494       18.00716587443071
H           16.84955717514800       18.24927858674047       20.95847688833580
