151
Properties=species:S:1:pos:R:3:MACE_forces:R:3 energy:=T -221.333566065681=T gnorm:=T 0.007838473398=T xtb:=T 6.7.1=T (edcfbbe)=T MACE_energy=-90873.37119334796 pbc="F F F"
C       11.48147756      15.82258028      24.95689873      -0.04744587      -0.01156206      -0.34449565
N       12.07725024      13.39057332      23.71159269      -0.20884450       0.12861727       0.21559213
O       10.52654217      15.77364887      22.69768575       0.06170701      -0.17419950       0.14216519
C       11.73730845      15.76355308      23.45143135       0.07023858       0.23300855       0.14906141
N       13.14746565      16.32314951      20.55457242      -0.01333221       0.00269936       0.35120138
O       17.99819601      18.39554458      23.04782087      -0.21692962      -0.50989159      -0.44088072
C        9.90322689      17.03623089      22.60886023       0.14769011      -0.04483627       0.04274920
N       20.45046346      20.56745574      22.54808322      -0.19620490       0.22217470       0.21750991
O       22.38984297      17.18767656      14.29723151       0.26768395       0.73840715      -0.36303096
C       12.47717698      14.48939471      23.08904336       0.19349172       0.19890104      -0.30249219
N       21.74196553      20.69113560      22.01913516       0.01139790      -0.25602824       1.02664807
O       22.72060004      22.46571879      16.33108721      -0.46533295      -0.11757511      -0.29847499
C       12.68892532      12.24543767      23.46735202       0.05111621      -0.21000706      -0.05712664
N       21.03501653      22.27007647      18.89231829       0.61006512      -0.53072613       0.03347050
O       19.21751565      23.60358651      19.03139145      -0.01226910       0.07829890      -0.03556514
C       13.75586779      12.12871136      22.59028949      -0.02234626       0.04422832      -0.00246702
N       20.67565155      23.38817490      16.17523260      -0.15216848       0.33787523       0.11715553
O       18.71314524      20.59440245      17.50060865       0.02499935       0.11109978       0.09184923
C       14.17839083      13.26844855      21.93152986      -0.10490130       0.06435504       0.06827130
N       22.08678496      19.18976147      13.26889124      -0.28522703       0.22516757      -0.28961916
O       23.05226983      21.11270239      20.23676515      -0.59728557      -0.12320889       0.23983213
C       13.53263416      14.48257795      22.16275220      -0.08764493      -0.34279998       0.16362554
N       27.30308135      16.68924199      13.12961457      -0.04209644      -0.01283233      -0.10387022
O       18.59813668      19.79483398      24.69858556       0.15614665      -0.19925758      -0.40627738
C       13.97414017      15.68785083      21.45369202       0.32825887       0.13175624       0.12401136
N       16.37340597      20.60098268      19.15078464      -0.00948977       0.29020361       0.02457241
C       11.97317496      15.73964052      19.95476877      -0.30174457      -0.46172330      -0.28809507
C       12.34956448      14.71569703      18.88289604      -0.03334474       0.21385651       0.12217414
C       15.17519485      16.35654419      21.55713758      -0.13117504      -0.32975095       0.03459053
C       16.35025156      15.97272515      22.39939514      -0.07335881       0.07124891       0.16362430
C       16.44534082      16.66089864      23.78078673       0.25775969       0.13661137      -0.03943322
C       17.60228446      16.03195403      24.56322177      -0.08126118       0.13139180      -0.14588056
C       15.14752139      16.49548599      24.56729230       0.27155794       0.10021685      -0.11590447
C       16.69962766      18.16645262      23.61575415      -0.57193427      -0.10036425       0.46229239
C       18.84242632      19.17513995      23.68698466       0.33815949       0.71863450       0.54988002
C       20.20493312      19.20005685      23.01048208       0.07530115      -0.26741019       0.28231149
C       21.93445799      21.03311749      20.73784652       0.42659456       0.54489011      -1.06444455
C       20.67234767      21.33005984      19.92482857      -0.15538129      -0.01552400      -0.00435018
C       20.30567584      23.33134552      18.54040910      -0.19552822       0.27843933       0.00184416
C       20.94744978      24.13850480      17.40379871       0.12204726       0.25983317       0.16902338
C       20.48633274      25.59946711      17.34871198       0.10593518      -0.14278908       0.05316864
C       21.11793046      26.31400952      16.15537644      -0.17322496      -0.19660410       0.04879677
C       20.89314739      26.29410367      18.64812052      -0.20911771      -0.17889018      -0.05425199
C       21.64229305      22.57680399      15.73837636       1.00806004      -0.23416327      -0.01684770
C       21.43015859      21.69353356      14.50134062       0.43972371      -0.34711194       0.21141729
C       20.85147559      20.35615511      14.98269309      -0.10708319       0.09977780      -0.24292112
C       20.76303095      19.36021910      13.82604096      -0.22022254      -0.18025719       0.36676429
C       22.84354334      18.15418075      13.67794779      -0.62251057      -1.19541536       0.56053824
C       24.24349647      18.21685593      13.35721531       1.23238967      -0.21005605       0.12263391
C       25.44351749      18.12916994      13.30332978      -1.01567372       0.21564863      -0.19681152
C       26.90027487      18.09799537      13.21400285       0.22937339       0.17134255       0.00910700
C       26.83833568      15.87044968      14.23074550      -0.13828575      -0.05853481       0.11125569
C       28.70976822      16.45738030      12.87996687      -0.02523556       0.06645604      -0.02381697
C       27.29821221      18.84959688      11.93390749       0.04481488      -0.13346804       0.10051914
C       27.44684735      18.84758254      14.44965560      -0.00524481      -0.22456703      -0.05910629
C       22.62895858      20.39931353      12.69663353       0.18335530       0.42121644      -0.05133943
C       22.76003972      21.48349550      13.76970255      -0.14771464      -0.06045373       0.08259745
C       19.30933795      23.44453445      15.69886531      -0.38793407      -0.05247550      -0.18174296
C       20.15823570      19.99822116      19.34732964      -0.24594684       0.26763368      -0.11508788
C       18.73054701      20.00795000      18.79909000       0.03139855      -0.15073812       0.29171156
C       17.70904087      20.72373840      19.69919028       0.29574756      -0.04202369      -0.04573840
C       16.37160720      21.19275308      17.82635183       0.19098747      -0.05326380      -0.28797134
C       17.41500680      20.50443784      16.94020338      -0.24067104      -0.03059596      -0.02161558
C       22.84024719      20.33413336      22.90327311       0.18779925      -0.28515352      -0.13658132
C       22.66133371      18.89395631      23.38327480      -0.05583514       0.22956699       0.06629062
C       21.27685900      18.72559522      24.00634475       0.02946780      -0.03964017      -0.26211791
C       15.09198899      17.47130821      20.66707004      -0.50006597      -0.02090279      -0.42053475
C       13.81704100      17.41070116      20.06133867       0.44610391       0.44289652       0.03539272
C       13.41254992      18.39371975      19.16761957      -0.02025939      -0.03009024      -0.04734381
C       14.28126490      19.41947191      18.88499056      -0.05717802       0.00649610      -0.16433108
C       15.58286845      19.48506231      19.43203896      -0.07547948      -0.10478379       0.17400829
C       15.98160159      18.49178701      20.31836834       0.11687973       0.14414595      -0.08054743
F       20.54704797      22.28069615      13.58666406      -0.13888377       0.05421186      -0.07119755
H       12.42522792      15.71900911      25.48664854      -0.00756098       0.02702145       0.06125520
H       11.02298322      16.76823017      25.23184871       0.00603638       0.06495279       0.03555854
H       10.82628267      15.00290003      25.23669703       0.02352843       0.03667187       0.04771864
H       12.34550192      16.62847713      23.14002124      -0.17704315      -0.24422396       0.06808942
H       10.60319615      17.78925516      22.22470964      -0.09652694      -0.04461367       0.01493425
H        9.07798127      16.91335730      21.91062192       0.00755384       0.13102246       0.05259659
H        9.51450117      17.36764636      23.57625344       0.00498279       0.00340664      -0.08369120
H       12.30202751      11.39263500      24.00724338       0.07934848      -0.12679979      -0.02538556
H       14.23268215      11.17627319      22.42460699       0.02218575      -0.05523315      -0.00101728
H       14.99652720      13.23025604      21.22672226       0.01047825       0.01929199      -0.01548517
H       11.36884730      15.26424672      20.73198694       0.13051952       0.25547824      -0.27014677
H       11.38716809      16.54658100      19.51003910       0.02019852      -0.10503512       0.16946509
H       11.45161198      14.33111090      18.40869045      -0.04396026      -0.07276769      -0.06419526
H       12.98024898      15.17728502      18.12506968       0.00180373      -0.04537554      -0.03177637
H       12.89159374      13.88385880      19.32962328      -0.01816016       0.00219053      -0.03862239
H       16.32531053      14.89441275      22.57293407       0.11797203       0.07830131      -0.02425317
H       17.26225993      16.20864621      21.84581123       0.00617844      -0.16564520       0.05029555
H       17.36603297      15.00139213      24.81869946       0.00294147      -0.03829242      -0.00481369
H       18.51587521      16.03964518      23.97118585       0.02719878      -0.03131222       0.04242168
H       17.78289601      16.58331467      25.48467400       0.02759116      -0.00747874       0.05545136
H       14.85243796      15.45092833      24.58943971      -0.05388043      -0.07698106       0.03618385
H       15.27723058      16.84294838      25.58961048      -0.03629572       0.01894982       0.06381897
H       14.35241328      17.06686507      24.10481263      -0.20878240       0.05202545      -0.01454038
H       16.65230251      18.67478467      24.58279786      -0.02104131      -0.12873090      -0.22055520
H       15.96564197      18.60510510      22.93713740       0.17205078      -0.02936919       0.12967409
H       20.18016067      18.54357510      22.13545944       0.07089092       0.15752338       0.18103386
H       20.35286269      21.19846719      23.34735800       0.03095141      -0.15020030      -0.31628239
H       19.91830563      21.78910036      20.56551058       0.19636453      -0.11504072      -0.20220551
H       21.93078753      22.09661540      18.44801890      -0.16102611       0.21983040       0.03632146
H       22.03482669      24.12239328      17.54001294      -0.35482041       0.02632463      -0.04369365
H       19.39671591      25.63337467      17.27106817       0.11028976      -0.02384214       0.01026046
H       20.82573235      27.36020974      16.15522825       0.00949497       0.07688445      -0.03892762
H       22.20316155      26.25939900      16.21868474       0.07481144       0.02141816      -0.02014311
H       20.80986428      25.87080428      15.21109967       0.04149182       0.02874376      -0.03403182
H       20.56920118      27.33076883      18.63280326       0.01928437       0.07586122       0.04362115
H       20.43501204      25.80378031      19.50259940      -0.00527887       0.04191316       0.05229639
H       21.97330881      26.26943522      18.77113550       0.10367533       0.03155336      -0.00226131
H       21.53251921      19.96351077      15.74163622      -0.10898314       0.03504924      -0.03180783
H       19.87926576      20.50100003      15.45241861       0.13845276       0.02019809      -0.00988586
H       20.09160478      19.73114458      13.04800112       0.06485335      -0.07850717       0.06265179
H       20.41532806      18.39121072      14.18688347       0.03438510       0.19599512      -0.13516512
H       27.43514121      15.99721074      15.14575371      -0.03755295       0.01055547      -0.01504942
H       25.79825992      16.10160588      14.45540714       0.14100127      -0.12817899       0.02107888
H       26.89713372      14.82590810      13.92840082       0.00370929       0.00643411       0.07460190
H       29.36025316      16.77013883      13.71084033      -0.00583303      -0.00973927      -0.05481498
H       28.84499687      15.38776734      12.73094363       0.08776567       0.02552242      -0.00829133
H       29.02133623      16.96676610      11.97304259       0.09139710      -0.03285331       0.02114884
H       26.74485042      19.78051249      11.87291889       0.02319595       0.09022621       0.01798278
H       28.35952314      19.07829269      11.93350471       0.06806724       0.01769084      -0.01381926
H       27.05827376      18.24328121      11.06640998      -0.01801118      -0.02465644      -0.05112339
H       27.13371046      19.88607709      14.41857570      -0.02089024       0.10408086      -0.00896203
H       27.06818422      18.40495384      15.36771646       0.03436245      -0.00214122       0.01340130
H       28.53176452      18.80840357      14.45618612       0.09792412       0.03200864       0.01214375
H       23.60365261      20.18706951      12.25784562      -0.25355549       0.09872928      -0.01063174
H       21.94444550      20.73888934      11.91395239       0.15495590      -0.10317240       0.00608291
H       23.06481517      22.42548668      13.31419477       0.02085749       0.01936711       0.08235025
H       23.50694757      21.19880204      14.51077939      -0.08718668       0.04301313      -0.11144557
H       19.16834999      24.28358509      15.01628348      -0.05119850      -0.10403401       0.03684495
H       19.03214467      22.52938836      15.18975653       0.02373233       0.12761068       0.06570883
H       18.65617504      23.56589287      16.56157479      -0.02271815      -0.00497853      -0.05677993
H       20.83204297      19.68757901      18.54568524      -0.02727778      -0.05424401       0.13397638
H       20.19759213      19.25018540      20.13730657       0.00664686      -0.05153450      -0.04415440
H       18.41248049      18.95507625      18.68715265       0.04804583       0.23424775       0.06428467
H       17.94349864      21.79280869      19.71175336       0.10618678      -0.24418654       0.07260734
H       17.75281443      20.34286391      20.71725743       0.00477006       0.04061284      -0.05684533
H       15.39605780      21.12248440      17.35514309       0.07161814       0.05570936       0.04247076
H       16.63816798      22.24943924      17.93598627      -0.06890543      -0.12895157      -0.08548901
H       17.46458722      20.97781764      15.95912435      -0.00377976      -0.04950478       0.03933150
H       17.14484771      19.44251286      16.81825251       0.01314495       0.22122315      -0.02735281
H       23.76516449      20.45902269      22.34033172      -0.18503323       0.02608804       0.15642794
H       22.83576851      21.02098868      23.75522396       0.02667860      -0.01931199      -0.05060228
H       23.43268432      18.65963137      24.11462561       0.02995404      -0.06170403      -0.02878243
H       22.77106136      18.21557569      22.53598665       0.06296345       0.03361798       0.02963999
H       21.19259567      19.32422674      24.91710153      -0.04507899      -0.07884166      -0.08724351
H       21.09791935      17.68197891      24.26664111      -0.02790012       0.04305342       0.04848263
H       12.43245378      18.37939456      18.71921639      -0.07927921       0.01293563      -0.05908361
H       13.93512679      20.20528284      18.23377405       0.00055063       0.02246671       0.02179877
H       16.96719800      18.48984292      20.75505893      -0.00991943       0.05004903      -0.01999919
