151
Properties=species:S:1:pos:R:3:MACE_forces:R:3 energy:=T -221.333248866071=T gnorm:=T 0.008466417630=T xtb:=T 6.7.1=T (edcfbbe)=T MACE_energy=-90873.36591849051 pbc="F F F"
C       10.83771417      15.84196472      24.98397614      -0.07181480       0.01790004      -0.38717486
N       11.71764037      13.36364044      23.98299848      -0.25750006       0.09074657       0.18893072
O       10.06827910      15.45998319      22.67873820       0.09628107      -0.15046857       0.16908273
C       11.20934790      15.66648498      23.51034401       0.01260778       0.20914483       0.10578891
N       13.01194147      16.15859902      20.71860226      -0.04734004       0.03466669       0.34081883
O       17.46075610      18.59268976      23.55378444      -0.13918624      -0.64301917      -0.24864743
C        9.20090177      16.56882810      22.58826379       0.10068258      -0.10923546       0.02780411
N       19.95927744      20.80305075      22.93383840      -0.23992762       0.22716466       0.16580814
O       23.13920276      17.23325213      13.15899208       0.28476919       0.60566668      -0.13489887
C       12.09970608      14.45230177      23.33072245       0.18614815       0.24339707      -0.29904160
N       21.31889567      20.87423346      22.61252004      -0.17123104      -0.14692777       1.00709442
O       23.07929403      22.28028542      16.65695762      -0.57889730      -0.09281305      -0.48493694
C       12.44371976      12.26445620      23.89754154       0.08874239      -0.21482758      -0.00767189
N       21.06793385      22.05362923      19.24983525       0.56204963      -0.45015835       0.19804152
O       19.22766976      23.34702856      19.05577152       0.05052648       0.05758149      -0.01482454
C       13.61697495      12.18798882      23.16258247      -0.01417993       0.07340469      -0.02753829
N       21.00067510      23.11023639      16.39647252      -0.17684341       0.24365947       0.17832720
O       18.92476047      20.22976869      17.81646111       0.02459092       0.09541376       0.03301035
C       14.02200416      13.31778992      22.47700952      -0.12111922      -0.01438127       0.06239978
N       22.90392062      19.47770904      13.00150032      -0.27568792       0.51689166      -0.03418167
O       22.89207461      21.11759718      21.01894776      -0.51715161      -0.10374178       0.10245826
C       13.25671409      14.48363312      22.53909128      -0.05741322      -0.34278364       0.15881408
N       27.90599422      16.92085414      11.54939949      -0.06229396      -0.02476077      -0.05160952
O       17.75473134      20.49187598      24.71396181       0.24098114      -0.32973783      -0.28461901
C       13.71699195      15.65819240      21.78918525       0.29664235       0.15651004       0.15162314
N       16.41380196      20.26970092      19.20423970       0.03523112       0.26504511      -0.06732257
C       11.89781641      15.50432847      20.07849405      -0.26970108      -0.45992657      -0.28512052
C       12.35927162      14.31434117      19.23744864      -0.06579007       0.17422584       0.06035113
C       14.88618583      16.36675070      21.96709337      -0.15669633      -0.29082525       0.08150916
C       15.91903095      16.12393944      23.02082434      -0.10466421       0.07481285       0.11780869
C       15.78920928      16.99068549      24.29531744       0.23142519       0.14703430      -0.03109422
C       16.78244022      16.47954424      25.34206505      -0.06287359       0.13539973      -0.19417510
C       14.37210744      16.91953718      24.85882452       0.23170604       0.11406296      -0.14013794
C       16.09493138      18.45993704      23.97744268      -0.61452500      -0.00909370       0.37065479
C       18.16999436      19.60279888      24.00322957       0.21858885       0.93923172       0.31237108
C       19.61561884      19.51888333      23.53892529      -0.02098823      -0.17257081       0.28556918
C       21.71150299      21.06446504      21.34526813       0.49534050       0.41030402      -1.03186883
C       20.58384452      21.22068776      20.32356437      -0.14470241      -0.02833348       0.01952170
C       20.37692876      23.07206646      18.73268000      -0.20568254       0.26392788      -0.14181829
C       21.14787608      23.84310234      17.65233195       0.04743721       0.29116438       0.19548418
C       20.70708883      25.31103013      17.55356708       0.12391707      -0.13771518       0.04746718
C       21.39736956      26.00703443      16.38333998      -0.14384623      -0.21754398       0.07563167
C       21.06207605      26.01526256      18.86250850      -0.22957441      -0.18356437      -0.06914959
C       22.05052927      22.39643758      15.97989648       1.15452987      -0.24898286       0.20516896
C       22.00515143      21.67428087      14.62556305       0.41764928      -0.30109704       0.26296795
C       21.49797958      20.24348949      14.83579552      -0.05103353       0.16100135      -0.20695779
C       21.55702368      19.46452560      13.52235035      -0.27840989      -0.31601664       0.25468357
C       23.60364594      18.33934559      12.87866419      -0.59103502      -1.29808231       0.27708774
C       24.95029292      18.45972293      12.38654437       1.16690374      -0.26927069      -0.32954062
C       26.08968198      18.35444310      12.01068974      -0.97999813       0.26673879       0.29386384
C       27.47324997      18.32402975      11.54513176       0.23401726       0.11883304      -0.21799820
C       27.78988258      16.26940175      12.83801056      -0.10258326      -0.03503984       0.10423592
C       29.20580886      16.66211211      10.96680396      -0.04340361       0.05443390      -0.02850638
C       27.47028442      18.87774101      10.11024439       0.07392949      -0.03478233       0.08823744
C       28.30078330      19.25503841      12.45670508      -0.04875930      -0.18188296      -0.00466056
C       23.41665861      20.79806334      12.72752652       0.18026342       0.40336049       0.00760321
C       23.40091425      21.65499631      13.99564378      -0.17140382      -0.01431781       0.01472276
C       19.67702960      23.11414803      15.80876963      -0.38050049      -0.00859570      -0.26020833
C       20.17356864      19.81919523      19.83702874      -0.28101089       0.25935650      -0.18372763
C       18.81046129      19.73418736      19.14627543      -0.00176494      -0.13285717       0.31036707
C       17.67872411      20.47665629      19.88038218       0.30076622      -0.03733026      -0.00815953
C       16.54298923      20.77967359      17.85156365       0.20075452      -0.12123410      -0.24158545
C       17.69845894      20.07874609      17.12382183      -0.24014403      -0.01719400      -0.01141220
C       22.25831998      20.63471267      23.69585534       0.17306605      -0.27009591      -0.06034255
C       21.98065090      19.26257051      24.30756008      -0.06452842       0.22453705       0.05681498
C       20.51702182      19.18202717      24.73947164       0.10261497      -0.09486402      -0.27575046
C       14.91776116      17.35791540      20.93894447      -0.41222945      -0.11434155      -0.44549313
C       13.73789574      17.18774049      20.17926478       0.44693475       0.47982075       0.03016889
C       13.47531732      18.02316513      19.10164304      -0.05398067      -0.03996357      -0.08432547
C       14.38116300      19.01126877      18.79766954      -0.02357746       0.03490037      -0.19383051
C       15.58769953      19.18972539      19.51331440      -0.10074101      -0.09819216       0.19052800
C       15.84882469      18.33695434      20.58043341       0.13528822       0.12344575      -0.09938785
F       21.15876690      22.34146809      13.73282294      -0.13839175       0.03032051      -0.07789934
H       11.74044667      15.85642891      25.58663634       0.02302858       0.02248426       0.06371543
H       10.30338044      16.77655970      25.13490227      -0.00566322       0.03093830       0.04118452
H       10.21680695      15.00739973      25.29531969       0.00824901       0.02283676       0.03992941
H       11.74184636      16.56272583      23.15040951      -0.12550180      -0.25622296       0.08628169
H        9.76098386      17.48282462      22.37430856      -0.02667685       0.05154063      -0.02560517
H        8.52243562      16.35519337      21.76560351      -0.02852206       0.10118500       0.03889414
H        8.62293142      16.70366022      23.50449303      -0.00507499       0.03995990      -0.01793923
H       12.06770686      11.41465642      24.45098694       0.07530065      -0.08894446      -0.01021053
H       14.18849611      11.27471740      23.12507139       0.01967503      -0.05310992       0.00241796
H       14.92096889      13.30720685      21.87700870      -0.00103597       0.02241701      -0.00819107
H       11.18909265      15.16490927      20.83881261       0.14689469       0.23023786      -0.25736111
H       11.39933584      16.23941246      19.44213523       0.01114738      -0.09137204       0.19899880
H       13.10332399      14.62881583      18.50912050       0.02025670      -0.02265281      -0.04982797
H       12.79815562      13.55107531      19.87641082      -0.00070034      -0.02286037      -0.03804396
H       11.51295381      13.87988057      18.71217388      -0.02579492      -0.05747724      -0.04314682
H       15.86323717      15.07875716      23.33166175       0.13597752       0.06935825      -0.00320911
H       16.90711918      16.30128277      22.59270947       0.02049123      -0.15167584       0.05420697
H       16.52174546      15.46869799      25.64335499      -0.00344841      -0.07383646       0.01839372
H       17.79228118      16.47188111      24.93862606       0.05175863      -0.04192434       0.04309071
H       16.76646441      17.11688692      26.22391450       0.02647699       0.01722006       0.07519642
H       14.08526078      15.88208026      25.00881938      -0.05547569      -0.02815047       0.03346481
H       14.31445434      17.43991274      25.81150234      -0.04103417       0.01755272       0.08223042
H       13.66713996      17.37714479      24.17130628      -0.11982875      -0.00837682       0.00356264
H       15.94451808      19.09253396      24.85738995       0.00114367      -0.17677581      -0.18634728
H       15.45678043      18.81867021      23.16650590       0.16145685      -0.02333481       0.13908561
H       19.69948831      18.74086106      22.77448649       0.04930377       0.16576922       0.15520616
H       19.71862690      21.54669066      23.59159181       0.08268962      -0.18167048      -0.22747639
H       19.73971599      21.72619842      20.79390651       0.24000403      -0.13795864      -0.18132085
H       22.02204504      21.87887442      18.96041285      -0.13366866       0.20698512      -0.03478499
H       22.21473836      23.81247821      17.89858616      -0.31979298       0.04462204      -0.06906404
H       19.62256907      25.34990938      17.42452605       0.11210547      -0.02035428       0.01181738
H       21.12717492      27.05734780      16.37069633       0.00814160       0.13459212      -0.03433109
H       22.47782698      25.92918434      16.48476225       0.09551574       0.02462420      -0.01301860
H       21.11341124      25.57064789      15.43069093       0.02686431       0.00177627      -0.08393994
H       20.75258007      27.05569254      18.82205528       0.01376135       0.07009685       0.05592252
H       20.55879902      25.54001413      19.70083143       0.00366326       0.04944681       0.06297237
H       22.13555872      25.97759557      19.03376365       0.08642705       0.03080806       0.01258348
H       22.14283812      19.77498751      15.58077233      -0.06565652       0.01684488      -0.04418707
H       20.47872877      20.24728408      15.22334999       0.08157021       0.03503199       0.04168685
H       20.88855090      19.92578811      12.78830274       0.04280302      -0.08974815       0.06411145
H       21.26542512      18.42467040      13.67963574       0.02760479       0.23335259      -0.08729592
H       28.58294814      16.55951398      13.54172543      -0.02443983       0.00205416       0.00886164
H       26.82295902      16.49664004      13.28278881       0.12761178      -0.11450880       0.01408819
H       27.85044340      15.19347232      12.68376809       0.00946996       0.00904710       0.06287666
H       30.03883864      17.05941155      11.56577118      -0.00375123      -0.00231488      -0.05606926
H       29.32494428      15.58203655      10.89621334       0.08805835       0.03684532      -0.01504870
H       29.26098044      17.07111158       9.96247652       0.08310245      -0.02121857       0.01058328
H       26.86885085      19.78302825      10.07256272       0.06371029      -0.00148940      -0.01300135
H       28.47960323      19.12185042       9.78995666       0.02756061       0.00454986      -0.04176930
H       27.04213462      18.14175161       9.43575696      -0.02314209       0.00447421      -0.01602775
H       27.91169945      20.26738763      12.39323801      -0.00110368       0.05776741      -0.00286102
H       28.24479949      18.92929940      13.49231884       0.02056533       0.02044686       0.01461233
H       29.33955817      19.26040612      12.14096251       0.08979011       0.00772996      -0.02687203
H       24.43346687      20.71627089      12.34356304      -0.26379543       0.11629970       0.02346305
H       22.78174584      21.26819037      11.96867540       0.15885242      -0.08625088       0.00309164
H       23.69304545      22.67644568      13.74892541      -0.00538649      -0.02554687       0.09144279
H       24.09706893      21.26858550      14.73867807      -0.05988844       0.02478189      -0.10119231
H       18.95513490      23.26844212      16.60805943      -0.00471878      -0.01591109      -0.03942220
H       19.57293895      23.90760024      15.06793133      -0.04259327      -0.10513154       0.04419788
H       19.46017692      22.16211960      15.33599474      -0.00636707       0.11809047       0.03281321
H       20.93210527      19.46484372      19.13668007      -0.02965931      -0.05888342       0.13426804
H       20.15487331      19.14723290      20.69240608       0.00958952      -0.06137912      -0.00435367
H       18.53129190      18.66538115      19.08146087       0.05146279       0.26435891       0.05189355
H       17.88129791      21.55183026      19.83538380       0.10410199      -0.23831948       0.10285133
H       17.62767548      20.17495295      20.92411500       0.00025613       0.03893939      -0.09182234
H       15.62925279      20.64997745      17.27948422       0.06987843       0.06769872       0.05889677
H       16.76734262      21.84891131      17.92582678      -0.05297380      -0.12302316      -0.09997636
H       17.84954460      20.51138988      16.13438621      -0.02828576      -0.05881478       0.02916742
H       17.46622776      19.00604991      17.02218549       0.01093544       0.20782854      -0.02893825
H       23.26174010      20.69613411      23.27718507      -0.17766150       0.03760830       0.09795696
H       22.12881636      21.41885054      24.44837802       0.03915413      -0.02932037      -0.04974950
H       22.63500126      19.10558688      25.16312817       0.03037309      -0.05327052      -0.01533450
H       22.18952529      18.49040605      23.56556779       0.06451478       0.02835171       0.04739895
H       20.31912692      19.90147950      25.53733446      -0.04913833      -0.06565174      -0.04688969
H       20.27939131      18.18468295      25.10816592      -0.04257650       0.02572627       0.04354657
H       12.57787651      17.92107359      18.51016633      -0.03190402       0.01252979      -0.02251449
H       14.13899628      19.67519513      17.98432806      -0.01498133       0.01926946       0.02180806
H       16.76199672      18.40710856      21.14798577      -0.00231584       0.05586615      -0.01883155
