151
Properties=species:S:1:pos:R:3:MACE_forces:R:3 energy:=T -221.333213869550=T gnorm:=T 0.008426487553=T xtb:=T 6.7.1=T (edcfbbe)=T MACE_energy=-90873.45421246203 pbc="F F F"
C       11.64971393      15.30745291      24.79891987      -0.09797087       0.01664851      -0.38791256
N       12.30513563      13.04884831      23.25471402      -0.21612882       0.08696618       0.25715169
O       10.60563902      15.38711665      22.57747137       0.10059699      -0.15520796       0.08756129
C       11.84339923      15.40956142      23.28417167       0.06445055       0.17814586       0.17648290
N       13.24522007      16.41461409      20.49573711      -0.00621404      -0.01022837       0.28798566
O       18.03314760      18.20893014      23.27969720      -0.09743653      -0.65294371      -0.24886883
C        9.81873790      16.54813430      22.73089490       0.16776642      -0.11400631       0.01553326
N       20.23359861      20.79912027      22.66920716      -0.29455721       0.17065156       0.21709909
O       21.94727506      17.22396642      13.74599355       0.44332549       0.68914817      -0.22159147
C       12.65090533      14.23252742      22.77061619       0.14983158       0.24998553      -0.27206368
N       21.57030604      21.01685878      22.32178886      -0.09774254      -0.29094928       0.98255514
O       22.67896835      22.29348571      16.53169510      -0.40603491      -0.05654120      -0.37263147
C       12.95894845      11.96907830      22.86513183       0.06382592      -0.17301733      -0.11282483
N       21.13618481      22.51226542      19.07912968       0.55791972      -0.45640356       0.12498334
O       19.26254569      23.77412948      18.96688582      -0.00985797       0.07566591      -0.05357515
C       14.01380597      12.00768901      21.96717539       0.01519266       0.06526682      -0.00970978
N       20.79236175      23.47075911      16.19660488      -0.13751075       0.28728728       0.07905993
O       18.79435050      20.86951334      17.75967625       0.03134131       0.05828735       0.04287591
C       14.38400718      13.23935002      21.45668423      -0.09568697      -0.03899002       0.07044958
N       22.06437232      19.37746365      13.04009600      -0.21135425       0.37817927      -0.20338588
O       23.05536760      21.57209449      20.72256121      -0.52732163      -0.12165468       0.12537552
C       13.69691531      14.38805637      21.84721079      -0.07428563      -0.33447278       0.08846680
N       26.94049968      16.22506807      13.40617657      -0.05335328      -0.05103104      -0.00974835
O       18.06788555      20.16508631      24.37593438       0.27294707      -0.33777644      -0.35855136
C       14.09669948      15.68736024      21.29446556       0.31948255       0.07972304       0.18759387
N       16.44274971      20.80290616      19.40321920      -0.00838415       0.25255973       0.06555902
C       12.05958668      15.90252319      19.85470389      -0.25020756      -0.38275747      -0.35257485
C       12.40597940      15.17578120      18.55572800      -0.04451747       0.14738781       0.18375235
C       15.29140018      16.35678104      21.45654313      -0.12225491      -0.33704627       0.01070476
C       16.47506329      15.89849587      22.24941599      -0.10930352       0.04523347       0.13333829
C       16.51343469      16.37322699      23.72020894       0.24025789       0.16197498       0.01535093
C       17.66321300      15.66437775      24.44062160      -0.14073841       0.12482617      -0.17958707
C       15.20031287      16.05377220      24.43070408       0.22141580       0.16888090      -0.15398963
C       16.72669933      17.88961588      23.78503781      -0.51080448      -0.09967395       0.34897007
C       18.59155449      19.33225640      23.66717252       0.08795216       1.02519997       0.36431623
C       20.01974004      19.44266170      23.16191209      -0.00572175      -0.22901231       0.24781710
C       21.89471833      21.40589239      21.07972993       0.49962010       0.53207784      -1.02758683
C       20.71163542      21.63333382      20.13921300      -0.15435761       0.03192294      -0.00216407
C       20.38843720      23.49634784      18.57379065      -0.11995486       0.28154309      -0.03238436
C       21.07936184      24.22931203      17.41420329       0.07580107       0.25275895       0.26667167
C       20.68779334      25.70943164      17.31075860       0.11842652      -0.18195041       0.06958387
C       21.43315697      26.37335838      16.15504361      -0.18825177      -0.17258752       0.04417485
C       21.03038335      26.41637938      18.62089889      -0.21749192      -0.19840356      -0.04756992
C       21.69157458      22.55063257      15.83600562       0.92791300      -0.34266673       0.10482305
C       21.53500067      21.79281370      14.50899160       0.33761607      -0.38345714       0.20917074
C       20.73010378      20.50598896      14.72413791       0.01292940       0.12124643      -0.16208710
C       20.70778019      19.66916074      13.44282772      -0.35426365      -0.21129329       0.25641004
C       22.60712854      18.18010720      13.33211900      -0.86516063      -1.10470769       0.32220339
C       24.02506144      18.05972013      13.12228308       1.12854455      -0.48310562       0.08512968
C       25.19904556      17.79393900      13.08340116      -0.95212043       0.39778135      -0.08176796
C       26.64450020      17.60528527      13.00441848       0.24424805       0.08829454      -0.19373550
C       26.42888160      15.86852779      14.71457329      -0.11557251      -0.02105396       0.10619311
C       28.32654563      15.82651846      13.27598390      -0.03287384       0.01779116      -0.04891407
C       27.04138612      17.82891657      11.53515874       0.02926684      -0.03853205       0.13739373
C       27.29773087      18.68807838      13.89073322      -0.06340639      -0.24469378      -0.05656321
C       22.82985586      20.55950503      12.72181014       0.23607342       0.35977296      -0.00189877
C       22.92439716      21.47518583      13.94288189      -0.16537408      -0.00241528       0.03842426
C       19.46315534      23.63262624      15.64580381      -0.33472569       0.02919430      -0.15521740
C       20.23661180      20.27075390      19.60077160      -0.26171278       0.24374868      -0.17256446
C       18.81415512      20.24532594      19.04037679       0.04579835      -0.11670735       0.26282369
C       17.77454405      20.90892682      19.96096195       0.30657668      -0.05252472      -0.04734874
C       16.44642060      21.45265363      18.10647030       0.16086990      -0.03864057      -0.34985679
C       17.49678571      20.80508930      17.19507712      -0.20432207       0.03098254       0.03704734
C       22.57360810      20.74274379      23.33843975       0.20502503      -0.22365777      -0.09606622
C       22.41662667      19.30868630      23.84069632      -0.04995498       0.19639652       0.08748823
C       20.98052266      19.08309597      24.30931543       0.10503070      -0.07417871      -0.28675409
C       15.18309809      17.56344267      20.69817332      -0.48029007       0.00508630      -0.37315822
C       13.89741145      17.55583212      20.11263405       0.44343394       0.45771436       0.08558248
C       13.47302117      18.61745550      19.32380062      -0.03602034      -0.06587868      -0.05657894
C       14.34054200      19.65913389      19.11086635      -0.02856533       0.05317385      -0.15753788
C       15.65472284      19.67450063      19.63158048      -0.08316770      -0.11183627       0.17475004
C       16.06498885      18.61622771      20.43317086       0.07482987       0.13973245      -0.06827579
F       20.87818373      22.59545549      13.56768685      -0.13680501       0.05698210      -0.12965822
H       12.60630310      15.12699161      25.27936604       0.02698197       0.02183223       0.06106705
H       11.22566176      16.22520560      25.19449112      -0.02479737       0.07305031       0.05223799
H       10.98533479      14.47500840      25.01079295       0.02640963       0.00125599       0.05676830
H       12.36882201      16.34575550      23.03558402      -0.12870257      -0.25861091       0.04474067
H       10.40542074      17.44668407      22.51196596      -0.06005325       0.00244997      -0.00546503
H        9.01085824      16.45109431      22.01061164      -0.05292479       0.13965412       0.05636762
H        9.40194354      16.62520300      23.73783601      -0.00849891       0.03400476      -0.03885552
H       12.61499625      11.03938443      23.29516547       0.07238652      -0.12212821      -0.02302031
H       14.52394765      11.10351420      21.67405910       0.01223798      -0.02959198      -0.00028801
H       15.19372067      13.31817499      20.74485032      -0.00834546       0.04583393       0.00178016
H       11.55008093      15.22057967      20.53819677       0.06412058       0.31511321      -0.17789133
H       11.39443605      16.74370710      19.64819404       0.01302843      -0.13817871       0.13973069
H       11.50038991      14.80452706      18.08797859      -0.07719268      -0.06019055      -0.10243736
H       12.91161705      15.84796310      17.86723167       0.02513699      -0.00546210      -0.06539018
H       13.06144957      14.33255305      18.76188409       0.00750713      -0.03037789      -0.00996841
H       16.49503224      14.80671670      22.25786662       0.11964607       0.07700721      -0.00265149
H       17.38276320      16.25389099      21.75822127       0.02149920      -0.16988096       0.01210346
H       17.49069115      14.59151174      24.45093731      -0.00085495      -0.07364889       0.00400747
H       18.60707370      15.86023690      23.94180588       0.10014023      -0.04051616      -0.00499500
H       17.73400087      16.00975335      25.46830649       0.05342673       0.01975082       0.12359875
H       14.94671171      15.00792981      24.28955455      -0.04653496      -0.07806673       0.03546078
H       15.28580070      16.25028534      25.49496518      -0.02316124       0.01699157       0.13006068
H       14.39447632      16.66001873      24.03155484      -0.14541274       0.00388937       0.00124582
H       16.65865932      18.25482192      24.81492374       0.00702588      -0.10745117      -0.20504663
H       15.98443257      18.41592847      23.17955612       0.14869804      -0.05931294       0.10209249
H       20.15691334      18.73888791      22.33507453       0.03530987       0.17370947       0.15964524
H       19.93747410      21.45733907      23.39110489       0.11092107      -0.11719910      -0.21052596
H       19.91235122      22.13035993      20.69044077       0.20044496      -0.15400124      -0.15836537
H       22.03991752      22.30672079      18.66757640      -0.19844074       0.18263407       0.01566138
H       22.16202993      24.16723093      17.56772644      -0.29777874       0.05027532      -0.04284733
H       19.60934164      25.78624418      17.15703566       0.09271578      -0.02432207       0.01188112
H       21.09948256      27.40072839      16.04037223       0.03081942       0.07691805      -0.03321418
H       22.50211511      26.37717141      16.35732795       0.09152313       0.02707139      -0.01865266
H       21.26906848      25.84964577      15.21747292       0.01495537       0.02651763      -0.08450822
H       20.77460221      27.46833819      18.54540023       0.02790102       0.11800384       0.05884841
H       20.47243585      25.98589068      19.44795794      -0.00518516       0.04179478       0.04040876
H       22.09255347      26.32916546      18.83674315       0.10377745       0.02960154       0.00226024
H       21.21294973      19.94337063      15.52532868      -0.06527501       0.03617192      -0.04849604
H       19.71356905      20.73291638      15.04228309       0.09396430       0.02383501       0.05839806
H       20.21201014      20.22295818      12.64053793       0.04260279      -0.10823543       0.07475835
H       20.18884613      18.72432144      13.61514973       0.10012680       0.22388024      -0.08577387
H       27.01410482      16.29851616      15.54189004      -0.04920705      -0.02025990      -0.03863725
H       25.39438978      16.19524028      14.80757307       0.12955678      -0.11960031       0.07887710
H       26.45511154      14.78299980      14.80879643      -0.00586192       0.07037837       0.05017612
H       28.99931780      16.35490852      13.96762220       0.00793125      -0.02078668      -0.04947683
H       28.38654075      14.76129284      13.49651555       0.07475580       0.05325219      -0.02162389
H       28.66890584      15.97883508      12.25662862       0.08900128      -0.01896698       0.04078852
H       26.56266813      18.73013375      11.16287274       0.04340923       0.03410596      -0.00330452
H       28.11629870      17.94730117      11.44022270       0.07325718      -0.00832217      -0.03471674
H       26.71202668      16.98422169      10.93762854      -0.00548966      -0.01418269      -0.02999519
H       27.01777725      19.67212943      13.53502326      -0.03628727       0.14554176      -0.07390307
H       26.96934892      18.59160418      14.91851931      -0.01807380       0.00166255       0.14250070
H       28.37566279      18.60039541      13.85239669       0.21337573      -0.00773842      -0.00134515
H       23.82801780      20.26991114      12.39358997      -0.24599441       0.13811844      -0.02202696
H       22.31856349      21.08458641      11.90889939       0.14956259      -0.12251410       0.02285591
H       23.41446764      22.41029022      13.66969693      -0.00304120      -0.01687134       0.09712900
H       23.50484528      21.00183225      14.73456269      -0.05360271       0.05728894      -0.11918936
H       19.41124927      24.50659230      14.99691938      -0.05197952      -0.07784210       0.00612925
H       19.16845212      22.75997878      15.07833326       0.01233346       0.08877696       0.00973513
H       18.76857714      23.75554789      16.47525585      -0.03190822      -0.00880925      -0.02559083
H       20.92586208      19.95818028      18.81307418      -0.03855234      -0.05004444       0.13496004
H       20.28086574      19.54376128      20.40706530       0.01474119      -0.06384481      -0.04119277
H       18.52820506      19.18756560      18.89706554       0.03636308       0.22225873       0.07535523
H       17.99590820      21.97887595      20.01363053       0.10914761      -0.22546367       0.07274238
H       17.81669245      20.49021185      20.96464189      -0.00592600       0.05677229      -0.09442329
H       15.47293662      21.39816822      17.62579836       0.09758363       0.04244798       0.06205435
H       16.71046341      22.50355064      18.26380378      -0.05476981      -0.12872667      -0.10487372
H       17.55138364      21.32890307      16.24065882      -0.02162690      -0.06776687       0.01470281
H       17.22701043      19.75107046      17.02305306      -0.00232719       0.18906239      -0.03532211
H       23.54926784      20.90277773      22.87860625      -0.21217885       0.02259791       0.14821411
H       22.43811824      21.45086362      24.16262323       0.04054109      -0.04044496      -0.05272956
H       23.11133765      19.13292226      24.66130529       0.02600820      -0.03761725      -0.05182089
H       22.65403274      18.61462057      23.03147543       0.04582286       0.05356918       0.07449616
H       20.75676032      19.72141818      25.16789815      -0.03488424      -0.06448546      -0.05765879
H       20.82954376      18.04498774      24.60322667      -0.04426597       0.01701979       0.04233199
H       12.48347899      18.64220288      18.89722046      -0.08723221       0.01936298      -0.06056437
H       13.99125303      20.50255497      18.53853225      -0.02351232       0.02617921       0.01347912
H       17.05579994      18.58114141      20.85538770       0.03665163       0.04360562      -0.00901266
