151
Properties=species:S:1:pos:R:3:MACE_forces:R:3 energy:=T -221.333788501122=T gnorm:=T 0.005463237119=T xtb:=T 6.7.1=T (edcfbbe)=T MACE_energy=-90873.4256499282 pbc="F F F"
C       11.25282849      15.33265866      24.74587511      -0.03657289       0.07548534      -0.41865652
N       12.12363064      13.07348505      23.33286876      -0.26855231       0.09394780       0.20707439
O       10.54852808      15.51119822      22.40965177       0.09174206      -0.15978171       0.13611983
C       11.67729929      15.44777734      23.28235383       0.01085186       0.18589177       0.17141757
N       13.28151915      16.26921177      20.46660482      -0.03842871       0.01497657       0.32448840
O       17.73040450      18.53673889      23.38832660      -0.10769266      -0.61467127      -0.26687839
C        9.98126295      16.79884116      22.29717095       0.12510077      -0.08283346       0.05079213
N       20.13504062      20.90223506      22.87190097      -0.26569510       0.19222909       0.19031629
O       22.44745581      17.06247326      14.22729417       0.26612814       0.64378878      -0.32271871
C       12.51012875      14.25096703      22.86386825       0.18300957       0.27548681      -0.22908215
N       21.48373989      21.03503711      22.52552741      -0.11569870      -0.22609511       1.01037567
O       22.84422888      22.32009843      16.59656132      -0.46352756      -0.08593336      -0.33699713
C       12.80970937      11.99090317      23.01469389       0.12258174      -0.20814856      -0.07699558
N       21.14615095      22.42189695      19.24377401       0.57247541      -0.44789811       0.11636942
O       19.29472465      23.70672282      19.08095294      -0.00223700       0.07007466      -0.01536676
C       13.94980315      12.02146811      22.22560562      -0.03544915       0.02110862       0.01557260
N       20.86004001      23.35881397      16.37269060      -0.11520373       0.32635532       0.09031442
O       18.90795517      20.62629536      17.78154648      -0.01187700       0.12241755       0.05502795
C       14.36220505      13.24504641      21.73237358      -0.11893805       0.03121295       0.07848883
N       22.15663478      19.14786469      13.38147337      -0.21266251       0.34734672      -0.16667228
O       23.01073227      21.41064451      20.91268794      -0.49974225      -0.11662473       0.11397354
C       13.63060212      14.39410123      22.03233813      -0.03074229      -0.35188000       0.11568248
N       27.24994436      16.43923703      12.59983054      -0.06633266      -0.04711562       0.00303672
O       17.97356540      20.37446320      24.65423155       0.23801191      -0.28363612      -0.32031842
C       14.04467006      15.67347953      21.44388911       0.25741371       0.11710035       0.15309013
N       16.46668469      20.64656516      19.28231480      -0.02171689       0.30375381       0.00677086
C       12.17293479      15.66255415      19.77447492      -0.23953774      -0.45095527      -0.34740313
C       12.64995956      14.76053744      18.63675842      -0.04029547       0.20388175       0.13485584
C       15.18573657      16.40993825      21.67741856      -0.10246115      -0.32069860       0.06880862
C       16.26927588      16.08072522      22.65534126      -0.10431066       0.05895112       0.10031530
C       16.17667770      16.78752994      24.02750034       0.24187473       0.16319713      -0.00110323
C       17.25411778      16.21152432      24.95156600      -0.09439334       0.09828368      -0.20391787
C       14.80288863      16.58315728      24.66115905       0.19338851       0.16329923      -0.13618600
C       16.39907494      18.29661969      23.86695949      -0.58895905      -0.09018844       0.35817488
C       18.40495618      19.55409783      23.87439375       0.18390837       0.90859089       0.35276469
C       19.83547947      19.56001033      23.36308947      -0.00175497      -0.22363227       0.28004243
C       21.84036828      21.32188210      21.26453759       0.43194549       0.48829397      -0.97871560
C       20.68262860      21.54159926      20.28744934      -0.10447498       0.00501155       0.01073947
C       20.43128968      23.42273272      18.72416066      -0.13754477       0.26408035      -0.06112050
C       21.15629325      24.13888294      17.57601717       0.03568990       0.19173193       0.17837316
C       20.79114026      25.62265615      17.45090143       0.11414928      -0.15340147       0.07741445
C       21.52646830      26.25278302      16.27043393      -0.20065224      -0.16624548       0.06417001
C       21.17230908      26.33424183      18.74879029      -0.21871718      -0.14225469      -0.07088982
C       21.78941922      22.48529601      15.97502639       1.00947148      -0.30828697       0.06662466
C       21.56814045      21.61063536      14.73456080       0.46743506      -0.34241372       0.21400464
C       20.99942577      20.26489683      15.19816080      -0.08432914       0.09551093      -0.26989034
C       20.86633335      19.30963901      14.01230695      -0.23831933      -0.20081954       0.36497165
C       22.88391760      18.03917710      13.61523653      -0.64942862      -1.12361292       0.53582236
C       24.21604298      18.02943086      13.07402702       1.22421477      -0.35578061      -0.26590893
C       25.35499906      17.85967196      12.72002104      -1.03488855       0.27030699       0.25690890
C       26.74517657      17.78171784      12.28583941       0.23191571       0.12064111      -0.24164969
C       27.04817377      16.03173916      13.97575064      -0.08654218      -0.02713457       0.13880869
C       28.61834414      16.19226053      12.19397996      -0.06151660       0.03347349      -0.00404169
C       26.75467209      18.00315656      10.76366753       0.03519648      -0.00307746       0.10462406
C       27.50206091      18.93352537      12.98405807       0.03015000      -0.19822162       0.01111604
C       22.70595389      20.37820001      12.86003282       0.17982192       0.35803635      -0.07689554
C       22.88687090      21.40441463      13.98245722      -0.13596603       0.01127539       0.07076253
C       19.50946905      23.47338598      15.86219223      -0.40951758      -0.02671523      -0.20436415
C       20.25412108      20.16930519      19.73438118      -0.27154084       0.18080961      -0.13603057
C       18.85978586      20.09866032      19.10423981       0.03700400      -0.10327538       0.29541217
C       17.76283978      20.81689595      19.91083917       0.27398548      -0.06609895      -0.00594830
C       16.54704115      21.20843439      17.94595478       0.19823737      -0.11781573      -0.26454027
C       17.64526652      20.49865998      17.14891701      -0.20276884      -0.01810673      -0.01725215
C       22.45398666      20.72034679      23.56288461       0.16157729      -0.26978440      -0.09675462
C       22.22336420      19.29016621      24.05160735      -0.05422610       0.22641661       0.08167059
C       20.77323683      19.12998829      24.50635939       0.11382049      -0.06394517      -0.29620613
C       15.14130262      17.51922192      20.77592606      -0.47436845      -0.07101447      -0.44667989
C       13.94184466      17.38913158      20.03951385       0.43571954       0.47830453       0.08339949
C       13.59695197      18.32805477      19.07710380      -0.10116666      -0.07360809      -0.07952882
C       14.45111002      19.37947516      18.85164871      -0.03778290       0.00885614      -0.16115798
C       15.68374362      19.51621418      19.53024459      -0.07381215      -0.10162113       0.17499667
C       16.01934393      18.56976775      20.49209230       0.16196549       0.16719064      -0.08601549
F       20.68159448      22.20541367      13.83002615      -0.17135747       0.06771110      -0.07839803
H       12.12883377      15.21942636      25.37594875       0.06168442      -0.00924511       0.08737484
H       10.71153536      16.22250749      25.05319352      -0.02419482       0.07508482       0.04501318
H       10.61557058      14.46218876      24.85960348       0.00425456      -0.00612628       0.06445332
H       12.27713298      16.35832116      23.13221116      -0.16755560      -0.23526268       0.02096894
H       10.73005940      17.52398579      21.95488123      -0.09717793      -0.03167579       0.00375426
H        9.18818235      16.71215124      21.55815371       0.00306924       0.13513805       0.04291922
H        9.55916840      17.14127069      23.24598165      -0.00494424       0.01009416      -0.06258433
H       12.42679078      11.06395901      23.41853324       0.08111998      -0.10137094      -0.01804571
H       14.48778423      11.11506686      21.99838410       0.02268441      -0.04366380       0.00088962
H       15.23613010      13.32228581      21.10120085       0.00016700       0.02416619      -0.01563961
H       11.57914765      15.08204512      20.48315625       0.10391434       0.28848947      -0.20028480
H       11.54497272      16.46354606      19.37899748       0.01324857      -0.10896686       0.14208503
H       11.79506360      14.37805535      18.08825766      -0.04687323      -0.07617068      -0.08766639
H       13.28917613      15.31740649      17.95519397       0.01207856      -0.02712562      -0.05998131
H       13.21386405      13.91999862      19.03433032       0.01266262      -0.02951060      -0.01499352
H       16.25719184      15.00458755      22.83980030       0.12449437       0.05630243       0.00005605
H       17.23163653      16.34116642      22.21078065       0.02348439      -0.16528399       0.03935251
H       17.04643837      15.16487098      25.15891758       0.00514485      -0.06559103       0.00755910
H       18.23538990      16.28386633      24.48859473       0.05154643      -0.03033266       0.03662002
H       17.27405261      16.75058855      25.89614490       0.02770915       0.02235747       0.07924469
H       14.54552234      15.52722776      24.66358882      -0.05475542      -0.03831176       0.02690061
H       14.79828268      16.94605561      25.68605227      -0.02877844       0.00652434       0.07528027
H       14.04456600      17.12440381      24.10346171      -0.11334170      -0.02613751      -0.00369458
H       16.27814474      18.81603133      24.82154483      -0.01554178      -0.13948405      -0.18278715
H       15.69793701      18.71650523      23.14073557       0.17921981      -0.04262882       0.14714462
H       19.91652675      18.85584172      22.52933744       0.04968299       0.16828640       0.18585035
H       19.89303542      21.57607571      23.60036638       0.09108178      -0.14891859      -0.24876398
H       19.85809374      22.02643931      20.81063460       0.21054561      -0.12332368      -0.19678239
H       22.07750404      22.22883928      18.89481203      -0.17017105       0.17694904      -0.01322924
H       22.23605277      24.05657022      17.73508716      -0.30540419       0.06017910      -0.02411957
H       19.71226045      25.72082337      17.30985219       0.09875270      -0.03969688       0.03203256
H       21.23980741      27.29560305      16.16827671       0.02718973       0.07352593      -0.02930048
H       22.60078517      26.20325918      16.42964473       0.11659623       0.01775382      -0.01333216
H       21.29767823      25.74034136      15.34035217       0.01548426       0.01528121      -0.08832549
H       20.95356081      27.39555978      18.66881650       0.02236643       0.06470916       0.05262050
H       20.61083793      25.92921844      19.58686439       0.00262840       0.04405184       0.04562003
H       22.23433169      26.21238793      18.95148292       0.08296361       0.02880352       0.00412900
H       21.69978586      19.84979199      15.92541083      -0.08745883       0.03704795      -0.01861718
H       20.04271917      20.40077505      15.69852050       0.09430449       0.02907190       0.00353663
H       20.16372503      19.71487715      13.27953361       0.04768607      -0.08289683       0.05565734
H       20.52530217      18.32967203      14.34923981       0.03845978       0.20012487      -0.12165396
H       27.72697664      16.53457873      14.68157147      -0.05288325      -0.02738444      -0.02123777
H       26.02013945      16.22968208      14.27359695       0.16321678      -0.11010998       0.05393745
H       27.22419810      14.95849080      14.04321955       0.00287931       0.05926536       0.05098976
H       29.35435118      16.76655835      12.77634675      -0.00559801      -0.01626515      -0.06202446
H       28.82306382      15.13413278      12.34660070       0.07143734       0.02557713      -0.04173946
H       28.74362802      16.41429712      11.13906205       0.10499840      -0.01346045      -0.00636608
H       26.09818981      18.83170232      10.51181569       0.05110537       0.03433153      -0.01786193
H       27.75483271      18.24131766      10.41629814       0.07477568      -0.00710353      -0.06030133
H       26.39762114      17.10770705      10.26376603      -0.01663931      -0.01015832      -0.02010155
H       27.04357995      19.88321530      12.72334512      -0.00019343       0.05116951      -0.02538571
H       27.46256578      18.81760595      14.06462305       0.02154768       0.02863043       0.00385850
H       28.54028410      18.94648833      12.66374142       0.05262496       0.02652962      -0.00616191
H       23.66255895      20.17030069      12.38074453      -0.26488707       0.13946524       0.01775442
H       22.00691353      20.77542301      12.11730702       0.17087451      -0.10740047       0.00665904
H       23.20562088      22.35847754      13.55986583       0.01299524      -0.01521600       0.09453387
H       23.63978303      21.07439168      14.69924795      -0.11348921       0.03291559      -0.11839977
H       19.44584975      24.24458499      15.09380462      -0.06357604      -0.09247628       0.02848185
H       19.16945556      22.53158466      15.44715505       0.02225556       0.12163614       0.03727139
H       18.85507954      23.73236619      16.69247955       0.01337645      -0.01391478      -0.04650446
H       20.98554603      19.86414624      18.98219072      -0.05532637      -0.05371701       0.14762497
H       20.28171587      19.44570465      20.54719268       0.01152484      -0.02911326      -0.04491583
H       18.58326226      19.03167092      19.02336714       0.04306463       0.22791522       0.05426178
H       17.96977889      21.89149769      19.89953454       0.10661298      -0.22949404       0.09757103
H       17.75094497      20.47249471      20.94311434       0.00249263       0.04912529      -0.09017655
H       15.60436996      21.12882664      17.41425590       0.05779902       0.05953664       0.05105079
H       16.80756586      22.26617205      18.04901365      -0.05200329      -0.11023015      -0.09353825
H       17.74894208      20.93630406      16.15520228      -0.00681919      -0.05833729       0.04958330
H       17.39184754      19.42957961      17.05127128       0.01849917       0.23894803      -0.03009996
H       23.44688601      20.84352126      23.13168451      -0.19504165       0.03306191       0.11090061
H       22.32104886      21.42922209      24.38683277       0.05103811      -0.03856064      -0.06801578
H       22.90192478      19.07291558      24.87498050       0.02913188      -0.05035453      -0.03138621
H       22.43324842      18.59465669      23.23698126       0.06318714       0.03826672       0.05868737
H       20.57724025      19.76013460      25.37759726      -0.04030274      -0.06263279      -0.07310089
H       20.56834024      18.09391008      24.77750769      -0.04144008       0.04845791       0.03974028
H       12.67631613      18.24501108      18.51744667       0.00337453       0.04940675      -0.01885843
H       14.14948828      20.12185888      18.13234032      -0.01122307       0.03829031       0.01478641
H       16.95677480      18.61942499      21.02272496      -0.03450120       0.03947865      -0.02018515
