151
Properties=species:S:1:pos:R:3:MACE_forces:R:3 energy:=T -221.333235327647=T gnorm:=T 0.008753450369=T xtb:=T 6.7.1=T (edcfbbe)=T MACE_energy=-90873.31732013088 pbc="F F F"
C       10.98287376      15.81661651      25.18755243      -0.10363739       0.04220639      -0.31656116
N       11.71213988      13.40166322      24.01636249      -0.19710895       0.06296161       0.20413514
O       10.06211436      15.59382816      22.91440548       0.07298030      -0.09970885       0.15222682
C       11.25383891      15.73045314      23.68483304       0.08937198       0.18287137       0.09530693
N       12.91687815      16.28341925      20.76456895      -0.01028525       0.02444864       0.28784361
O       17.46412844      18.55064117      23.45057004      -0.08523661      -0.63148586      -0.32862540
C        9.15080011      16.66563297      23.03259269       0.12375833      -0.11750057       0.03113385
N       19.86480272      20.86845008      22.95396205      -0.30508350       0.18569364       0.18775277
O       23.33757901      17.23480766      13.31531616       0.27392238       0.76714947      -0.16739972
C       12.09101531      14.50206483      23.38126653       0.15468908       0.23191218      -0.30359487
N       21.22660618      21.01287074      22.67318748      -0.10001405      -0.13078126       0.92481027
O       23.06341750      22.37674434      16.78237084      -0.36192836      -0.16101709      -0.35788120
C       12.38060288      12.27827552      23.83326498       0.05553127      -0.21373665      -0.01933738
N       21.00264277      22.11635892      19.28782270       0.60215809      -0.39510316       0.14290982
O       19.10325338      23.31400470      19.03867052       0.06434936       0.05462855      -0.03425119
C       13.48686255      12.18391967      23.00351150      -0.03059858       0.08408245       0.00241963
N       20.95798029      23.09461314      16.43615157      -0.19328182       0.28473941       0.13154875
O       19.08165639      20.08717198      17.77337793       0.05736200       0.09511093       0.06869611
C       13.88524924      13.32412843      22.33232510      -0.10324481       0.01093502       0.03396295
N       23.03692952      19.47552011      13.13310211      -0.25678637       0.40205532       0.03284539
O       22.83153258      21.31516261      21.11732834      -0.55361399      -0.15231005       0.12381099
C       13.18331861      14.51945673      22.50214874      -0.08528986      -0.36132950       0.15357143
N       27.98312344      16.91235832      11.40040724      -0.07261912      -0.04843645      -0.00319743
O       17.64825401      20.38379827      24.73539743       0.29020416      -0.37749357      -0.39949232
C       13.65608210      15.69797713      21.76598981       0.31459794       0.13626017       0.14807988
N       16.50379408      20.11703907      19.01585602       0.07419711       0.20034884      -0.04703004
C       11.69328258      15.77314375      20.19977726      -0.31781466      -0.42416885      -0.25715287
C       11.96884702      14.79002424      19.06282912      -0.06241087       0.08344908       0.05674703
C       14.88490788      16.31608963      21.87453379      -0.15388550      -0.25996538       0.10395522
C       15.97498136      15.99538312      22.84773925      -0.11073597       0.07327562       0.11247231
C       15.93315425      16.80401463      24.16505788       0.22307751       0.14006541      -0.01883895
C       17.05568804      16.31664195      25.08562187      -0.11473911       0.12788125      -0.18925798
C       14.58799428      16.62257172      24.86457292       0.20080962       0.10731083      -0.17766789
C       16.11755181      18.30053273      23.87862299      -0.60406363      -0.05442725       0.40980989
C       18.11625605      19.56076606      23.97622081       0.16264095       1.00565949       0.47970689
C       19.57639568      19.56693732      23.55283103      -0.00305359      -0.18306755       0.28835351
C       21.64720430      21.19922010      21.41275309       0.47419796       0.41862183      -0.99085523
C       20.54167538      21.26889921      20.35816120      -0.14559755      -0.01635470       0.02489772
C       20.27169270      23.09142775      18.74425955      -0.22021193       0.27209497      -0.12162687
C       21.02923727      23.87749624      17.66781879       0.03368161       0.29651677       0.21650357
C       20.51430060      25.31476225      17.51110286       0.11228089      -0.13566937       0.06415619
C       21.26847284      26.03312920      16.39527797      -0.14046785      -0.19465224       0.05796357
C       20.70748417      26.05182983      18.83579522      -0.23554319      -0.17454786      -0.08368076
C       22.05278438      22.41808746      16.07632181       0.98410816      -0.21919241       0.11027053
C       22.07600956      21.64987768      14.74849016       0.46207421      -0.27199164       0.23940400
C       21.60248620      20.20944073      14.96810180      -0.05513189       0.14954068      -0.22603641
C       21.69005226      19.43033775      13.65532792      -0.29156186      -0.30468729       0.23114413
C       23.76316663      18.35243178      13.01151618      -0.60172029      -1.31854313       0.29163161
C       25.08698054      18.49813791      12.46562830       1.11452571      -0.43849387      -0.43442864
C       26.19087519      18.34494250      12.00679270      -0.89440249       0.40636726       0.34810032
C       27.54388624      18.31299688      11.46105680       0.22206480       0.11423847      -0.23675308
C       27.75536499      16.15315946      12.61222955      -0.09861158      -0.06246856       0.16913558
C       29.33940957      16.71947815      10.93021272      -0.00116019      -0.03311115      -0.04524409
C       27.46991213      18.88936124      10.03499437       0.05914106      -0.02474660       0.08448667
C       28.41982278      19.22399534      12.34873742       0.01152783      -0.22711619      -0.02127134
C       23.53454735      20.80709461      12.88178240       0.17864376       0.39040540       0.00773515
C       23.49212711      21.64350715      14.16318164      -0.19956896      -0.01056176       0.02971249
C       19.65603785      23.02719637      15.80629086      -0.39115906      -0.06606589      -0.26616131
C       20.23596303      19.83943302      19.87973991      -0.26071013       0.21046323      -0.17481029
C       18.91766985      19.66225829      19.12330622      -0.05081927      -0.06396932       0.30175787
C       17.71997894      20.40303271      19.74384937       0.29183141       0.01219436      -0.01271901
C       16.67143772      20.48898691      17.62681575       0.26623873      -0.06139120      -0.22315260
C       17.91159397      19.80578395      17.03061172      -0.28283984      -0.02602738      -0.06304153
C       22.14981598      20.83040545      23.78124140       0.18171148      -0.26857174      -0.03268508
C       21.92539556      19.45213986      24.40299720      -0.08991122       0.22916427       0.05348689
C       20.45433138      19.29410850      24.78606060       0.14024219      -0.07325351      -0.27941010
C       14.91847041      17.33058429      20.86949373      -0.51125529      -0.09226112      -0.41998188
C       13.67821333      17.26827275      20.19449448       0.49532200       0.43661521       0.03460362
C       13.39758660      18.13888097      19.14837239      -0.08372460      -0.05017579      -0.07084216
C       14.35504513      19.05370740      18.78539018      -0.03254361      -0.00859719      -0.15087987
C       15.62198046      19.11595695      19.41078837      -0.12651214      -0.10308052       0.17291105
C       15.89451519      18.24204425      20.45628825       0.14250507       0.16325818      -0.12458194
F       21.24852272      22.27515574      13.80745270      -0.13853949       0.02635538      -0.08781138
H       11.92370696      15.74683496      25.72881041      -0.04074262       0.02652166       0.03031963
H       10.50093038      16.75829008      25.44038935       0.02183671       0.01743887       0.03507951
H       10.34432019      14.98509680      25.47705600       0.05404522       0.07190114       0.04400124
H       11.78708811      16.63545424      23.34628397      -0.13427997      -0.26694396       0.06473641
H        9.65203910      17.62710788      22.88322659      -0.04261351      -0.00050918      -0.02462245
H        8.41135119      16.50673930      22.25246866      -0.05236770       0.13935325       0.02823491
H        8.65171582      16.66623108      24.00443286       0.01100417       0.02968762      -0.03731790
H       12.01140100      11.42304125      24.38366524       0.07695083      -0.08579184      -0.03018009
H       14.01108438      11.25015072      22.88851565       0.04429388      -0.07901297      -0.02385989
H       14.73133348      13.30418760      21.66009031       0.00784550       0.00554689       0.00466634
H       11.11481283      15.28186247      20.98566274       0.11971539       0.26352675      -0.24886609
H       11.11259920      16.62094654      19.82660865       0.00756612      -0.13278855       0.17204793
H       12.49730020      15.28635222      18.24786269      -0.01485933      -0.09775838       0.03831567
H       12.57857786      13.95923150      19.42413569      -0.07458174       0.07382498      -0.06249088
H       11.02624915      14.39311395      18.68394368       0.09261127      -0.00558403      -0.02583691
H       15.92385056      14.93713050      23.11126141       0.13652544       0.05401134      -0.01104673
H       16.93644154      16.18289986      22.36589207       0.01952819      -0.14228859       0.05116588
H       16.88010237      15.28387394      25.37334743      -0.00447717      -0.07611923       0.02491601
H       18.01809045      16.37704179      24.58400956       0.05697775      -0.03618497       0.03155571
H       17.09603293      16.92432760      25.98738092       0.03502841       0.01339126       0.08363358
H       14.38714842      15.56494965      25.01574576      -0.06274663      -0.02801577       0.02508642
H       14.58804410      17.11917394      25.83133398      -0.01895840       0.02532267       0.08668606
H       13.79109178      17.04337701      24.25982747      -0.13720465      -0.00511449       0.02587300
H       15.92676043      18.89785803      24.77521351       0.02355829      -0.16873956      -0.19766013
H       15.44764047      18.62760391      23.08087727       0.15392603      -0.00140983       0.15987601
H       19.73314133      18.79350489      22.79471909       0.02622145       0.17937850       0.17123638
H       19.56527267      21.59667815      23.60492186       0.11403447      -0.16864441      -0.23401147
H       19.65355408      21.72614025      20.79726197       0.27289937      -0.13503400      -0.18367208
H       21.96747042      21.98937966      19.00613602      -0.16802326       0.16512703       0.01705986
H       22.08807895      23.91532017      17.94652457      -0.32020774       0.01399999      -0.07997906
H       19.44547558      25.29148542      17.28387374       0.11252891      -0.02186912       0.02728051
H       20.89151007      27.04586808      16.28538519       0.01763178       0.07736809      -0.03357902
H       22.32869034      26.08297999      16.63533331       0.08824867       0.03246507      -0.01879322
H       21.15957396      25.51912840      15.44424752       0.01985030       0.02647626      -0.07749262
H       20.38270499      27.08356781      18.73926320       0.00926639       0.08805945       0.04296654
H       20.12431825      25.58218134      19.62323988      -0.00651222       0.04032353       0.04879439
H       21.75434312      26.04188659      19.12721298       0.12604193       0.04343784       0.01573175
H       22.25286986      19.75914924      15.71941224      -0.05690887       0.03292351      -0.04144263
H       20.58249098      20.18519145      15.35074098       0.07150276       0.04494834       0.03308154
H       21.01254486      19.87628695      12.91886638       0.05846828      -0.10135628       0.08392915
H       21.42165538      18.38348393      13.81041203       0.03950947       0.24351763      -0.08177995
H       28.40348067      16.46064440      13.44831227      -0.04751953      -0.03672517      -0.04865144
H       26.71631129      16.25007691      12.92118357       0.15901614      -0.11882201       0.02739561
H       27.95390459      15.10332162      12.39865746       0.00336145       0.04511496       0.05808697
H       29.50356818      17.28086792      10.01302107       0.09383705      -0.05949844       0.06045999
H       30.10202406      17.00370952      11.67417997      -0.06044846       0.00922626      -0.11945932
H       29.46566600      15.65740916      10.70836457       0.07767570       0.14697558      -0.00321147
H       26.84683933      19.77962780      10.03024981       0.05176073       0.04022893      -0.01154061
H       28.45922196      19.16103825       9.67724423       0.03321710       0.00048942      -0.03302476
H       27.03568488      18.14990105       9.36790433      -0.02421808       0.01372822       0.00265250
H       28.01151617      20.23006820      12.35370913       0.00150818       0.06882478      -0.00647173
H       28.44172553      18.85402347      13.37148253       0.01708477       0.02866175       0.00614930
H       29.43432696      19.25739753      11.96162310       0.05060474       0.03487974      -0.01485183
H       24.55702729      20.74306821      12.50900639      -0.27330628       0.11040510       0.01932678
H       22.90194470      21.27952076      12.12302425       0.17120395      -0.07793486       0.00439109
H       23.79559516      22.66831614      13.94624060      -0.01425862      -0.03505817       0.07443743
H       24.16653051      21.23756456      14.91734757      -0.07361506       0.05892193      -0.11254710
H       18.90076615      23.13496710      16.58353496       0.00831876      -0.01615858      -0.06901522
H       19.53408760      23.82140479      15.06822488      -0.05046038      -0.10978237       0.04104655
H       19.50722303      22.06864079      15.31877308      -0.00018189       0.15666704       0.06001074
H       21.04839841      19.51451754      19.22637190      -0.04224907      -0.05394368       0.14101554
H       20.21046060      19.18341572      20.74822646       0.01943535      -0.03949033      -0.02642378
H       18.68332393      18.58213759      19.10416218       0.03422684       0.23290737       0.03192842
H       17.89375940      21.48084464      19.64620729       0.11058601      -0.25065300       0.14552355
H       17.60818662      20.15577407      20.79789135       0.02365727       0.03584863      -0.08654673
H       15.80330040      20.21000369      17.03628071       0.05958518       0.07937172       0.03951121
H       16.80848569      21.57546373      17.58101892      -0.04315521      -0.13082512      -0.08455004
H       18.09586900      20.16555916      16.01742711      -0.03756140      -0.05587891       0.03898536
H       17.75049844      18.71613078      17.00575014      -0.00946258       0.18792357      -0.04473782
H       23.15862828      20.93457870      23.38259946      -0.19927603       0.03435172       0.11360649
H       21.96673731      21.61599135      24.52132799       0.04135829      -0.03780261      -0.05296874
H       22.55592599      19.34435936      25.28346591       0.04352574      -0.05897918      -0.01285160
H       22.20274789      18.68254497      23.68135516       0.06707441       0.03193137       0.04092026
H       20.18740009      20.01363282      25.56290925      -0.04124287      -0.07610134      -0.03097634
H       20.26009325      18.29074509      25.16436906      -0.04409310       0.02934897       0.02924180
H       12.44825798      18.11645182      18.63455511      -0.02884145       0.01862248      -0.02967502
H       14.11706331      19.76138359      18.00716587      -0.00939441       0.02478254       0.02361530
H       16.84955718      18.24927859      20.95847689      -0.00320895       0.04023597      -0.02818280
