151
Properties=species:S:1:pos:R:3:MACE_forces:R:3 energy:=T -221.333225365373=T gnorm:=T 0.005932474520=T xtb:=T 6.7.1=T (edcfbbe)=T MACE_energy=-90873.36751818324 pbc="F F F"
C       11.44687542      15.87407232      24.91143302      -0.09961504      -0.02046195      -0.37669922
N       12.08187856      13.37371296      23.79941450      -0.19279409       0.13743039       0.20695937
O       10.51136524      15.64684646      22.64955815       0.05837683      -0.11394118       0.15433764
C       11.71318109      15.72383789      23.41370113       0.07005381       0.21691923       0.10597504
N       13.20124011      16.19490415      20.54630084       0.01543835      -0.04212539       0.32413714
O       17.91698413      18.32648966      23.11357071      -0.14581120      -0.60610646      -0.35352434
C        9.74929323      16.83600732      22.63153806       0.19456744      -0.12134987       0.05070362
N       20.30269649      20.65033528      22.54973867      -0.22575229       0.24219771       0.25429535
O       22.32395047      17.24664802      14.21269068       0.29847197       0.70653746      -0.29280875
C       12.48286867      14.44619799      23.13282006       0.18228735       0.21628119      -0.32797061
N       21.61972661      20.82053609      22.10830818      -0.01482196      -0.31110239       0.98259860
O       22.70868048      22.46618241      16.46365634      -0.45704639      -0.07792894      -0.35022873
C       12.70971049      12.22544744      23.61787328       0.08034199      -0.24331576      -0.03638537
N       21.04134111      22.40386900      18.95333588       0.62445684      -0.52897014       0.09192751
O       19.19753206      23.71265424      18.99230486       0.00909081       0.05991867      -0.03642792
C       13.79017543      12.07899596      22.76124712      -0.02914314       0.06491110       0.00008883
N       20.73717769      23.51464765      16.20253685      -0.10819269       0.36322568       0.08948441
O       18.74392320      20.73808452      17.54540238       0.00986826       0.07971755       0.08275811
C       14.21322240      13.19177538      22.05682500      -0.14099053       0.00175733       0.08833925
N       22.15435133      19.30994267      13.27788786      -0.24430515       0.29613323      -0.25171161
O       23.01949485      21.32090079      20.41727166      -0.52652915      -0.14035149       0.14765226
C       13.55495901      14.40884490      22.22642587      -0.08484934      -0.30803328       0.14132768
N       27.25986757      16.63844812      12.72542569      -0.08447520       0.01283272      -0.04928820
O       18.35557047      19.99009280      24.55394111       0.23033938      -0.28934909      -0.40972869
C       14.00913372      15.58843872      21.48115758       0.28002386       0.11182161       0.13736123
N       16.40037969      20.50409951      19.17931576       0.01609297       0.28755133      -0.01613169
C       12.03249849      15.60020401      19.94709639      -0.27077701      -0.43345713      -0.26278681
C       12.41702227      14.59797886      18.86053678      -0.06849346       0.17998070       0.12183997
C       15.20745622      16.26034963      21.59058271      -0.11700631      -0.28190213       0.04151303
C       16.36607512      15.88460500      22.46084508      -0.06667848       0.07619936       0.14847089
C       16.41930161      16.56124358      23.84989635       0.22829840       0.14130388      -0.05390142
C       17.58535433      15.96613981      24.64527904      -0.11151634       0.12830702      -0.15895270
C       15.11613010      16.34344605      24.61502426       0.20764049       0.12763020      -0.18145503
C       16.62615672      18.07243115      23.68877554      -0.54556345      -0.09207732       0.46114208
C       18.67923713      19.25238245      23.64765616       0.20548331       0.92791149       0.49609611
C       20.05739746      19.28359785      23.00746344       0.02631242      -0.22716520       0.24976350
C       21.87821361      21.19308610      20.84623705       0.39374224       0.56824618      -0.96341167
C       20.65282337      21.45697009      19.96844530      -0.08710507       0.01185177      -0.02379471
C       20.31179501      23.44909943      18.55833866      -0.22483761       0.29504235      -0.01898550
C       21.00187636      24.24910914      17.44310318       0.08085724       0.21608769       0.20326605
C       20.59734075      25.72658438      17.38823231       0.10783793      -0.16801554       0.08682737
C       21.33395786      26.43457304      16.25315283      -0.17893279      -0.14327976       0.06454268
C       20.94628485      26.38360497      18.72425448      -0.23044660      -0.16282540      -0.07015324
C       21.67573503      22.65070986      15.80963158       1.00844633      -0.31884653       0.04644599
C       21.49887328      21.80850474      14.53733188       0.40277135      -0.34663006       0.26223228
C       20.83055334      20.48542236      14.93247429      -0.05042564       0.08665105      -0.24565863
C       20.80416545      19.51311984      13.75109817      -0.27411957      -0.18443234       0.35270421
C       22.84398185      18.21808689      13.65945382      -0.64356741      -1.10232731       0.45149535
C       24.25394699      18.22866729      13.36864605       1.13633158      -0.35535420       0.06076328
C       25.44328121      18.07302498      13.26231265      -0.98414321       0.27110212      -0.08139536
C       26.89221245      18.00942158      13.10743739       0.30420039       0.15601643      -0.03573319
C       26.69313777      15.60624860      13.57058537      -0.14495212      -0.12017420       0.09999954
C       28.68184021      16.41775530      12.55668415      -0.05226689       0.01481520      -0.05101545
C       27.25623032      18.98537796      11.97430372       0.00430985      -0.07512757       0.08319286
C       27.51780399      18.49403570      14.43335889       0.06864363      -0.15927021      -0.05919853
C       22.76837634      20.51758247      12.77787430       0.17534059       0.38236602      -0.05223572
C       22.86647763      21.56149270      13.89140396      -0.13342125      -0.01561167       0.03813541
C       19.39849756      23.64417147      15.66593567      -0.35017464      -0.05092871      -0.16179120
C       20.20826060      20.11228346      19.36421813      -0.26282775       0.24269957      -0.17667694
C       18.78651533      20.06849121      18.80258976       0.06438231      -0.15442043       0.27106855
C       17.72527633      20.66505559      19.74258316       0.28192683      -0.06683434      -0.04222792
C       16.37286726      21.19651654      17.90531881       0.19138924      -0.05265988      -0.27201675
C       17.45166482      20.63373028      16.97226484      -0.20550265       0.01286880       0.01052237
C       22.67692220      20.46574557      23.04327686       0.14356735      -0.25491020      -0.15261309
C       22.49917253      19.01107635      23.47477600      -0.05737681       0.22184497       0.08951853
C       21.09469235      18.81798147      24.04354057       0.09094320      -0.04341672      -0.27056935
C       15.14056406      17.35506848      20.67052370      -0.50567831      -0.07594735      -0.41876188
C       13.88358280      17.26348229      20.03036800       0.45784447       0.47777259       0.03439632
C       13.51062035      18.19992928      19.07688605      -0.04429713      -0.02070788      -0.06441700
C       14.37136486      19.23470219      18.79899106      -0.06370971       0.03366511      -0.17422054
C       15.63618854      19.36202104      19.41638445      -0.07422492      -0.15472643       0.18957983
C       16.02054270      18.38723344      20.33285095       0.15885966       0.15094736      -0.08216707
F       20.70754381      22.46683882      13.58989310      -0.15706739       0.06039633      -0.10944667
H       12.37992720      15.77788883      25.45712158       0.04242843       0.01637259       0.07413505
H       11.01305864      16.84633164      25.12771226      -0.00637258       0.05311819       0.03955195
H       10.76760263      15.08838525      25.22875521       0.02033348       0.02384688       0.05793100
H       12.29794304      16.58547611      23.04898066      -0.16260365      -0.26552636       0.10134068
H       10.38232743      17.69866326      22.39786228      -0.06269160      -0.00211792      -0.00614351
H        9.00931071      16.70277935      21.84780291      -0.06423567       0.11402919       0.02083083
H        9.24286507      17.00393643      23.58494702       0.00368402       0.04001559      -0.04916361
H       12.32779061      11.39149218      24.19184610       0.07154260      -0.08325725      -0.03269175
H       14.27747759      11.12400754      22.64791477       0.02016698      -0.04937946      -0.00653587
H       15.03926815      13.12574797      21.36389585       0.02304545       0.03405858      -0.01354149
H       11.44667480      15.10073313      20.72190147       0.10673646       0.26654290      -0.24564140
H       11.42536148      16.40293215      19.52389801       0.00968248      -0.10659085       0.15629319
H       11.52191473      14.17819095      18.41168207      -0.04467969      -0.06818057      -0.07385345
H       13.00830029      15.08168207      18.08742995       0.03230026      -0.01361704      -0.06824965
H       13.00261911      13.78880746      19.29090047       0.00601751      -0.04055950      -0.01905630
H       16.34945512      14.80494573      22.62385377       0.12473788       0.07018505      -0.01476433
H       17.28851064      16.13569757      21.93147911      -0.00741966      -0.16610661       0.05532348
H       17.39343401      14.91773174      24.86406561       0.00827788      -0.02626977      -0.00554178
H       18.51114555      16.03821599      24.07777194       0.03747118      -0.04001040       0.05351327
H       17.71170818      16.49714468      25.58775219       0.03772509      -0.00915885       0.04549114
H       14.88157237      15.28320612      24.65722590      -0.06040892      -0.03763778       0.03091069
H       15.20242176      16.72123017      25.63025071      -0.02275682       0.02616705       0.09524000
H       14.29862627      16.85988823      24.12196067      -0.13476847      -0.01200398       0.02356660
H       16.57232081      18.58525198      24.65383587      -0.02107505      -0.15188577      -0.22226364
H       15.87546633      18.48946628      23.01421328       0.16098595      -0.00896351       0.12098891
H       20.06463786      18.61802433      22.13889242       0.06169503       0.15237010       0.17985055
H       20.11556955      21.28766197      23.32679098       0.06907702      -0.15694887      -0.27531105
H       19.85990134      21.89813483      20.57139429       0.16829755      -0.10690093      -0.18911800
H       21.94944810      22.23605336      18.53217817      -0.18123628       0.20399861       0.02930635
H       22.08395902      24.19603773      17.60369436      -0.32978071       0.04992511      -0.03737573
H       19.51788817      25.80602531      17.24013723       0.09345782      -0.03011981       0.02357919
H       21.05507167      27.48493617      16.22872544       0.01560759       0.04773659      -0.03920340
H       22.40895749      26.36915778      16.40913795       0.08474241       0.01511569      -0.01731073
H       21.10358660      25.99312061      15.28789407       0.02212996       0.01071790      -0.08670280
H       20.69238338      27.43956928      18.69534804       0.02309548       0.06844845       0.04728734
H       20.39045555      25.91867573      19.53425851       0.01101928       0.04084414       0.04403907
H       22.01005700      26.28763311      18.93108553       0.08582894       0.02327603       0.00137988
H       21.42006712      20.05500964      15.74441570      -0.08585269       0.02013327      -0.03102246
H       19.82329996      20.65981994      15.30867229       0.12615738       0.03354516       0.02732958
H       20.20169706      19.92185987      12.93617443       0.03978894      -0.08632168       0.05834645
H       20.39938822      18.54958633      14.06398224       0.05538472       0.19254827      -0.12356210
H       27.18913742      15.52808135      14.55130801      -0.06751943       0.00396218      -0.07400208
H       25.63216734      15.79347375      13.72968529       0.17018073      -0.16341972       0.00212269
H       26.80204079      14.64917422      13.05861412      -0.00885937       0.04597941       0.10053886
H       29.23787153      16.43923801      13.50565739       0.01347927       0.02999273      -0.05822346
H       28.81396500      15.43171531      12.11153350       0.07817071       0.06357668       0.02354933
H       29.10027195      17.15447019      11.87801920       0.09584430      -0.03421076       0.01713854
H       26.76904524      19.94110579      12.15125862       0.05537962       0.02467874      -0.00134788
H       28.32836819      19.15135656      11.93234283       0.05734234       0.01046327      -0.01314541
H       26.91496839      18.58243972      11.02447550      -0.00445604       0.01112241       0.00336281
H       27.10776038      19.46504860      14.69999903       0.02358468       0.03273743       0.00169210
H       27.29919494      17.79529115      15.24001641       0.02035114       0.05800331      -0.02572366
H       28.59656372      18.58705109      14.32309371      -0.00227945       0.00436509       0.04102587
H       23.75859127      20.28611535      12.38683009      -0.24455966       0.12291727      -0.01078088
H       22.14036896      20.90482505      11.96949690       0.16272739      -0.11365293       0.01303275
H       23.23981358      22.50314041      13.48689239       0.00462530      -0.00574027       0.10099292
H       23.54683359      21.22737599      14.67423220      -0.06860958       0.03456022      -0.12475491
H       19.33095052      24.50125199      14.99648443      -0.07416708      -0.07455044       0.00463448
H       19.10526336      22.75215151      15.12587405       0.02161687       0.11146474       0.04534050
H       18.71330019      23.77930066      16.50138080      -0.01904725       0.00218374      -0.04713056
H       20.90612250      19.85418472      18.56343579      -0.05429219      -0.05680305       0.14439768
H       20.27825785      19.34807189      20.13515077       0.00313490      -0.05926422      -0.02328256
H       18.53038805      19.00743502      18.62281811       0.03248114       0.24678027       0.08688226
H       17.89991938      21.74329203      19.82126296       0.11553056      -0.22138447       0.07126635
H       17.79378837      20.22575397      20.73500967      -0.00719107       0.06434336      -0.07694508
H       15.40334450      21.12399781      17.42397667       0.05472184       0.05641452       0.03956905
H       16.59268197      22.25169387      18.10056380      -0.06771429      -0.12003800      -0.10548071
H       17.48194999      21.19620655      16.03819841      -0.00954749      -0.07186429       0.02750762
H       17.23336143      19.57577159      16.75735605      -0.00676884       0.18901226      -0.01567166
H       23.62578030      20.62402860      22.53166214      -0.17760673       0.01532388       0.15255691
H       22.61125569      21.13055596      23.90982998       0.04189809      -0.02229026      -0.04606067
H       23.24682528      18.75937960      24.22495034       0.02913422      -0.05244826      -0.03303680
H       22.64140627      18.36038938      22.60994570       0.06862128       0.03231023       0.06023778
H       20.96943025      19.41372637      24.95150189      -0.04098230      -0.08059141      -0.07455294
H       20.92056683      17.77096225      24.29207632      -0.04065290       0.03540603       0.04361206
H       12.56144701      18.14130689      18.56717190      -0.05977322       0.02074000      -0.02083681
H       14.04011795      19.97592771      18.09211197      -0.00516221       0.04432347       0.00776446
H       16.98814062      18.41252579      20.80648963      -0.01627125       0.05730147      -0.00240182
