151
Properties=species:S:1:pos:R:3:MACE_forces:R:3 energy:=T -221.333220089271=T gnorm:=T 0.003738068092=T xtb:=T 6.7.1=T (edcfbbe)=T MACE_energy=-90873.44060380831 pbc="F F F"
C       10.87722617      15.93386491      24.70887989      -0.02470840      -0.01849769      -0.39050026
N       11.78275214      13.44133262      23.82292852      -0.24871056       0.09840906       0.18527781
O       10.36664728      15.67313329      22.32660799       0.08399308      -0.16211224       0.16117473
C       11.41610888      15.76708668      23.28946756       0.01671169       0.21645733       0.12396841
N       13.21488827      16.13988099      20.60618945      -0.05635872       0.03323194       0.32585019
O       17.72419432      18.41600978      23.60939936      -0.09988900      -0.60921254      -0.16869243
C        9.77749989      16.90697486      21.98052138       0.11978221      -0.07459367       0.07146187
N       20.16257025      20.72866814      22.87338133      -0.25683754       0.19986920       0.21956707
O       22.78055592      17.17987562      13.53250499       0.31898408       0.74086886      -0.21653146
C       12.23921659      14.49707198      23.16829775       0.21958876       0.22908717      -0.29909916
N       21.50845957      20.81487588      22.50443762      -0.11461664      -0.24266715       1.00094147
O       22.91787468      22.35920513      16.63913757      -0.41671095      -0.12773690      -0.33032074
C       12.45906156      12.30632402      23.77808332       0.07812739      -0.21378448      -0.00769776
N       21.08500721      22.19014387      19.21583896       0.60785248      -0.43975046       0.12851219
O       19.22277358      23.46627112      19.17682636      -0.02316392       0.05493196      -0.07449854
C       13.64964422      12.16229902      23.08509174       0.00313243       0.05822194      -0.03643054
N       20.84101209      23.19133881      16.39501422      -0.19802168       0.25904458       0.14126996
O       18.85520441      20.45031300      17.84730652       0.04564212       0.09284306       0.01729930
C       14.13022555      13.25658653      22.38737330      -0.13838853       0.00528904       0.04775151
N       22.55065095      19.39297245      13.09088022      -0.24220562       0.37144159      -0.06660616
O       23.01218911      21.19545478      20.86857847      -0.52283369      -0.10097214       0.12467489
C       13.41954039      14.45457184      22.40674398      -0.10116233      -0.30976308       0.16492143
N       27.57919759      16.67337609      11.99508689      -0.05076316      -0.04401489      -0.02168039
O       17.96859681      20.41680025      24.59596304       0.26710695      -0.38421052      -0.31197378
C       13.91961558      15.61699810      21.66545501       0.31224609       0.13862128       0.20660143
N       16.43407237      20.48372672      19.38198259      -0.02996548       0.26801685       0.00389450
C       12.18073487      15.45485326      19.87280624      -0.21338222      -0.45818639      -0.32277561
C       12.77603405      14.51954636      18.82110771      -0.07481379       0.19045612       0.10867575
C       15.05998622      16.35588792      21.89901242      -0.15048159      -0.37978030       0.05265842
C       16.10195162      16.05367145      22.93003410      -0.07685709       0.07261187       0.10420496
C       16.00153781      16.82577091      24.26486762       0.24920280       0.14567610       0.00314691
C       16.97043017      16.19107081      25.26762342      -0.11671533       0.12128604      -0.17153648
C       14.58092945      16.77018625      24.82458709       0.23516494       0.14336049      -0.12715587
C       16.36740167      18.30102681      24.06935168      -0.61877835       0.02998821       0.33854051
C       18.40481874      19.49025783      23.94725184       0.12796758       0.95346815       0.30002194
C       19.84000499      19.42723678      23.45161491       0.00667229      -0.15055718       0.25450330
C       21.84769038      21.10712352      21.23944734       0.45976020       0.48233390      -1.04126397
C       20.66920467      21.31983430      20.28811528      -0.15063437      -0.00706206       0.04120297
C       20.34233066      23.20181226      18.75760184      -0.14680640       0.27539816      -0.09402046
C       21.01681102      23.97667652      17.61592543       0.04046987       0.30387155       0.21888529
C       20.50017745      25.41626117      17.47548765       0.14074901      -0.13736344       0.08633041
C       21.20316349      26.12074903      16.31705003      -0.13417065      -0.20118841       0.05312792
C       20.74949256      26.17485931      18.77818012      -0.21714282      -0.18360759      -0.04585904
C       21.87486564      22.45136241      15.98590991       0.99597484      -0.26975538       0.03312223
C       21.78434825      21.66847200      14.66725273       0.45505209      -0.28862894       0.23997263
C       21.23265070      20.26473206      14.93938122      -0.04285056       0.13439739      -0.21890116
C       21.21674560      19.45231105      13.64375290      -0.26354024      -0.26407978       0.26335309
C       23.25297044      18.24683099      13.13253083      -0.67081588      -1.24977622       0.34382322
C       24.60783657      18.30955748      12.65084554       1.15941175      -0.42353760      -0.22837663
C       25.75332367      18.13920830      12.31870270      -0.96935616       0.38995627       0.19540335
C       27.15234231      18.07516345      11.90547081       0.21659668       0.10197984      -0.19518687
C       27.38817536      16.07866555      13.30248186      -0.08169870      -0.05220103       0.13873892
C       28.91173333      16.39734680      11.50019980      -0.03737955       0.02145651      -0.01828489
C       27.21311604      18.55619894      10.44595863       0.04965834      -0.03038755       0.09531946
C       27.94564836      19.04803612      12.80502316       0.00379170      -0.19253224      -0.01084117
C       23.11086274      20.68291791      12.76693591       0.19977890       0.40152289      -0.00649955
C       23.16653161      21.57218199      14.01248100      -0.18794803      -0.00978325       0.03311900
C       19.50316485      23.17825700      15.84149527      -0.35406039      -0.03869829      -0.19966589
C       20.20938195      19.94286239      19.77684449      -0.25116735       0.23457669      -0.15777523
C       18.80996711      19.90550362      19.16236577       0.00159516      -0.16161035       0.31389388
C       17.73849701      20.63169538      19.99709949       0.32074991      -0.03743977      -0.02272906
C       16.51060727      21.07571235      18.05792745       0.16497087      -0.11265675      -0.27121925
C       17.58349728      20.36251213      17.22794839      -0.21924156       0.01523428       0.00380678
C       22.49203155      20.53657741      23.53962265       0.15487842      -0.24536966      -0.08948184
C       22.22384948      19.15630447      24.13924961      -0.04622747       0.22693504       0.06225257
C       20.77559365      19.07237864      24.62098700       0.08629834      -0.10644223      -0.28760814
C       15.06691110      17.40200322      20.92458792      -0.40753124      -0.05896653      -0.47081306
C       13.90564550      17.22500101      20.13793719       0.42710021       0.49287426       0.05577659
C       13.61063289      18.10727503      19.10851511      -0.05951072      -0.07145902      -0.04266522
C       14.46715290      19.15647398      18.87757980      -0.02566571       0.05203762      -0.21196302
C       15.65578574      19.34815043      19.61772699      -0.08912379      -0.08909046       0.16411858
C       15.94981391      18.44591409      20.63570712       0.13931201       0.13006292      -0.05531094
F       20.95121000      22.33103682      13.75759579      -0.15649135       0.04302565      -0.09594715
H       11.70238770      15.95145901      25.41384103       0.04259939       0.00658363       0.08549789
H       10.32007759      16.86249950      24.79700468      -0.00338226       0.06800216       0.02499243
H       10.22684765      15.09632590      24.93998968       0.00369487       0.02757701       0.06313363
H       12.05185752      16.62688637      23.02495714      -0.17865708      -0.23186551       0.05261796
H       10.54049433      17.62715163      21.66325848      -0.07034681      -0.01949564      -0.01399363
H        9.10747548      16.69330338      21.15110134      -0.01886176       0.14318332       0.02112855
H        9.20539945      17.33145851      22.80888164      -0.00350580       0.01912440      -0.04144805
H       12.02207922      11.48556196      24.32995254       0.08238786      -0.10483344      -0.00110591
H       14.17984192      11.22378164      23.08558983       0.01121932      -0.06268128      -0.00060837
H       15.04469813      13.18858096      21.81582563       0.01025899       0.03363081      -0.01309379
H       11.56389487      14.88779597      20.57266336       0.10934714       0.26838825      -0.22522858
H       11.54962007      16.20533257      19.39177891       0.00450521      -0.10296695       0.15868179
H       13.39623999      15.07933876      18.12451816       0.02520710      -0.03478064      -0.04586709
H       13.39021642      13.75960481      19.29901171       0.00704763      -0.03188336      -0.00548624
H       11.98009590      14.02823074      18.26989091      -0.03309555      -0.07101716      -0.07743226
H       16.04339151      14.99034223      23.17110955       0.13754117       0.07107092      -0.00854296
H       17.08686509      16.25131067      22.50106995      -0.01134398      -0.15792837       0.06073273
H       16.64287323      15.18449492      25.51641384       0.01045574      -0.05615344      -0.00065561
H       17.97170668      16.13742948      24.85033955       0.09238924      -0.02680055       0.01942573
H       17.00686762      16.77561131      26.18465842       0.02091795       0.01278429       0.07366870
H       14.24228455      15.73903454      24.88121674      -0.04776108      -0.02648901       0.02927011
H       14.54816648      17.20361960      25.82103868      -0.04101241       0.01459960       0.08117102
H       13.89856484      17.32364397      24.18573743      -0.10384773      -0.01575754       0.00076217
H       16.27663960      18.85487279      25.00949293      -0.01572435      -0.16275198      -0.20863713
H       15.71440931      18.76625552      23.32538277       0.17131487      -0.06357015       0.12130020
H       19.91539047      18.66541267      22.66975088       0.04117895       0.17013102       0.15277670
H       19.93745017      21.45045053      23.56104255       0.07165559      -0.17466102      -0.25492008
H       19.86223324      21.81508825      20.83009948       0.23374418      -0.15094774      -0.20008637
H       22.00775997      22.01898136      18.83387447      -0.15557798       0.18665690       0.01429462
H       22.09436399      24.00631988      17.81098401      -0.30937691       0.01880291      -0.05574769
H       19.42269549      25.39380922      17.29683915       0.09912398      -0.01675743       0.02535498
H       20.79795192      27.12059109      16.19070552       0.01758076       0.07793626      -0.02983272
H       22.26893837      26.20314130      16.52166305       0.07799410       0.02991197      -0.01503188
H       21.07954895      25.57817416      15.38357216       0.01453678       0.03407661      -0.07387541
H       20.44433723      27.21121547      18.66550585       0.01637048       0.08735459       0.04483293
H       20.17781332      25.73488106      19.59091292       0.02064957       0.04693247       0.03327552
H       21.80477473      26.14964291      19.04021555       0.10195430       0.04044479       0.00222087
H       21.89377602      19.79011689      15.66653234      -0.07835474       0.02878676      -0.02704536
H       20.23409065      20.31034887      15.37313553       0.07016723       0.04435645       0.03531846
H       20.55386830      19.92787243      12.91465862       0.04746611      -0.09706602       0.06988951
H       20.88249714      18.43144844      13.83462213       0.03971306       0.22009829      -0.08415839
H       28.13952713      16.40156642      14.03983108      -0.06488097      -0.01173402      -0.03190519
H       26.39622409      16.32385893      13.67869139       0.14931351      -0.12368789       0.02659882
H       27.45689611      14.99551336      13.19963702       0.00756163       0.06621963       0.06644092
H       29.70754214      16.85058169      12.11067587      -0.01783818      -0.01398348      -0.06356264
H       29.05265459      15.31701949      11.51524061       0.06472607       0.06285278      -0.03379070
H       29.01030387      16.73649289      10.47336341       0.10114914      -0.02037222       0.01157669
H       26.60770295      19.45174642      10.33266178       0.05791784       0.02142484      -0.00326390
H       28.23414453      18.79417237      10.16227114       0.05211138      -0.00334838      -0.04749730
H       26.82226516      17.78433077       9.78955254      -0.01755878      -0.00951213      -0.01813964
H       27.58940857      20.06261689      12.64968643      -0.00731160       0.04970162      -0.00593237
H       27.81671534      18.79436789      13.85452045       0.03234489       0.01769646       0.00502207
H       29.00247779      19.00685863      12.55479882       0.05088507       0.02720978      -0.00586531
H       24.11219340      20.54705442      12.35794636      -0.26842664       0.13098031       0.01577235
H       22.47384622      21.15809192      12.01384129       0.16210117      -0.10368171       0.00647544
H       23.49843704      22.57310933      13.73473966      -0.00021155      -0.01995252       0.09060668
H       23.86216676      21.17097516      14.74884946      -0.07119261       0.03940685      -0.10006192
H       18.79736391      23.26940829      16.66520186      -0.02135928      -0.01465315      -0.03864315
H       19.35831290      24.00470142      15.14480029      -0.05379840      -0.09622103       0.02939829
H       19.30531065      22.24658383      15.32497122      -0.00549610       0.12705226       0.05250745
H       20.92439200      19.59795172      19.02661564      -0.04057453      -0.04387952       0.14023395
H       20.22180614      19.24293059      20.60995892       0.01411175      -0.04699162      -0.02898086
H       18.50811182      18.84487854      19.07293018       0.06340458       0.25527932       0.05474589
H       17.95855462      21.70314558      19.99900122       0.10047484      -0.25520313       0.07858222
H       17.74175473      20.27562148      21.02450593      -0.01314489       0.03327054      -0.08259953
H       15.55728582      21.04074164      17.54017084       0.07127215       0.05397479       0.04703667
H       16.80026409      22.12316403      18.18836638      -0.06313839      -0.11852396      -0.10083479
H       17.68667286      20.82188767      16.24514675      -0.02073449      -0.05645892       0.02256030
H       17.30723544      19.30254069      17.11014253       0.00602688       0.19956173      -0.03615315
H       23.47621024      20.59057043      23.07478139      -0.18868897       0.03887037       0.12369609
H       22.41291442      21.30828455      24.31278304       0.03699995      -0.04654423      -0.05782368
H       22.90621201      18.98394028      24.97016655       0.02703739      -0.04859494      -0.03205838
H       22.40384996      18.39299966      23.38022735       0.05614538       0.03554996       0.05217415
H       20.60605932      19.78389916      25.43292123      -0.04938726      -0.06873470      -0.04489156
H       20.54933110      18.07094978      24.98588043      -0.04220193       0.03161547       0.03995590
H       12.72325312      17.99203144      18.50474501      -0.03239597       0.02133068      -0.03770239
H       14.19673785      19.85357870      18.10229247      -0.00195517       0.01275052       0.01798279
H       16.85313220      18.52792768      21.21722562      -0.00505671       0.05393583      -0.01646290
