151
Properties=species:S:1:pos:R:3:MACE_forces:R:3 energy:=T -221.333566065681=T gnorm:=T 0.007838473398=T xtb:=T 6.7.1=T (edcfbbe)=T MACE_energy=-90873.35210978081 pbc="F F F"
C       11.48147756      15.82258028      24.95689873      -0.05959061       0.04423105      -0.33809991
N       12.07725024      13.39057332      23.71159269      -0.22936311       0.09039882       0.19756285
O       10.52654217      15.77364887      22.69768575       0.02919111      -0.14098263       0.15275451
C       11.73730845      15.76355308      23.45143135       0.06937587       0.23262344       0.15377401
N       13.14746565      16.32314951      20.55457242      -0.08778256       0.05143659       0.33685790
O       17.99819601      18.39554458      23.04782087      -0.23825556      -0.50368160      -0.53070138
C        9.90322689      17.03623089      22.60886023       0.14267365      -0.06585362       0.03022928
N       20.45046346      20.56745574      22.54808322      -0.25937997       0.22001812       0.13349918
O       22.38984297      17.18767656      14.29723151       0.33024799       0.71692314      -0.35804916
C       12.47717698      14.48939471      23.08904336       0.16929287       0.22767927      -0.31805885
N       21.74196553      20.69113560      22.01913516       0.01615298      -0.27381087       1.02388389
O       22.72060004      22.46571879      16.33108721      -0.47440564      -0.09095628      -0.27082445
C       12.68892532      12.24543767      23.46735202       0.09328637      -0.20571635      -0.05543744
N       21.03501653      22.27007647      18.89231829       0.65310049      -0.57080653       0.06973946
O       19.21751565      23.60358651      19.03139145      -0.01085008       0.13833936      -0.04213860
C       13.75586779      12.12871136      22.59028949      -0.02089682       0.02806572       0.02479702
N       20.67565155      23.38817490      16.17523260      -0.18119865       0.35562928       0.17169384
O       18.71314524      20.59440245      17.50060865       0.00341584       0.08366862       0.11253542
C       14.17839083      13.26844855      21.93152986      -0.11730173       0.07251298       0.03475867
N       22.08678496      19.18976147      13.26889124      -0.29127725       0.21898861      -0.30494297
O       23.05226983      21.11270239      20.23676515      -0.62774775      -0.13302752       0.23192932
C       13.53263416      14.48257795      22.16275220      -0.09020320      -0.41913729       0.17649243
N       27.30308135      16.68924199      13.12961457      -0.00069246      -0.02618455      -0.08872321
O       18.59813668      19.79483398      24.69858556       0.18568913      -0.16219002      -0.41969658
C       13.97414017      15.68785083      21.45369202       0.37000811       0.13558653       0.09405102
N       16.37340597      20.60098268      19.15078464       0.03534155       0.26208816       0.05519172
C       11.97317496      15.73964052      19.95476877      -0.27649822      -0.43437451      -0.26755191
C       12.34956448      14.71569703      18.88289604      -0.03108543       0.22725977       0.10429785
C       15.17519485      16.35654419      21.55713758      -0.12556380      -0.35624607       0.03798002
C       16.35025156      15.97272515      22.39939514      -0.10217203       0.06895893       0.15700685
C       16.44534082      16.66089864      23.78078673       0.27729514       0.13456132      -0.06326128
C       17.60228446      16.03195403      24.56322177      -0.08788138       0.14144866      -0.12181680
C       15.14752139      16.49548599      24.56729230       0.25728840       0.11567311      -0.09924682
C       16.69962766      18.16645262      23.61575415      -0.54805214      -0.08877286       0.43061951
C       18.84242632      19.17513995      23.68698466       0.39616269       0.70231832       0.57035080
C       20.20493312      19.20005685      23.01048208       0.13507391      -0.26632182       0.31950339
C       21.93445799      21.03311749      20.73784652       0.34503994       0.57377614      -0.98327322
C       20.67234767      21.33005984      19.92482857      -0.13241880       0.06464279      -0.03469283
C       20.30567584      23.33134552      18.54040910      -0.21017887       0.25166429       0.02141571
C       20.94744978      24.13850480      17.40379871       0.12867816       0.24252154       0.15250204
C       20.48633274      25.59946711      17.34871198       0.10839468      -0.12096170       0.06914754
C       21.11793046      26.31400952      16.15537644      -0.18234090      -0.20507744       0.08300831
C       20.89314739      26.29410367      18.64812052      -0.20922802      -0.17625226      -0.05552611
C       21.64229305      22.57680399      15.73837636       0.94332247      -0.23829754      -0.04311907
C       21.43015859      21.69353356      14.50134062       0.45992741      -0.37202917       0.33412735
C       20.85147559      20.35615511      14.98269309      -0.12814452       0.08691647      -0.26659720
C       20.76303095      19.36021910      13.82604096      -0.21617450      -0.18210035       0.39123720
C       22.84354334      18.15418075      13.67794779      -0.72287755      -1.12649234       0.54478966
C       24.24349647      18.21685593      13.35721531       1.18451765      -0.25853170       0.09760497
C       25.44351749      18.12916994      13.30332978      -0.93926643       0.21754198      -0.20571668
C       26.90027487      18.09799537      13.21400285       0.21557464       0.16105322       0.06782735
C       26.83833568      15.87044968      14.23074550      -0.08916804      -0.06292459       0.10034053
C       28.70976822      16.45738030      12.87996687      -0.04656767       0.08506582      -0.02033704
C       27.29821221      18.84959688      11.93390749       0.03069804      -0.12852978       0.09112669
C       27.44684735      18.84758254      14.44965560      -0.00032687      -0.20224910      -0.09428129
C       22.62895858      20.39931353      12.69663353       0.19539234       0.41658888       0.02427836
C       22.76003972      21.48349550      13.76970255      -0.15310129      -0.03935292       0.01402410
C       19.30933795      23.44453445      15.69886531      -0.31859804      -0.05705977      -0.15352452
C       20.15823570      19.99822116      19.34732964      -0.27772857       0.25583844      -0.11971947
C       18.73054701      20.00795000      18.79909000       0.02032231      -0.18980525       0.30892387
C       17.70904087      20.72373840      19.69919028       0.23216370      -0.09036728      -0.08234444
C       16.37160720      21.19275308      17.82635183       0.19590281      -0.03837381      -0.26746419
C       17.41500680      20.50443784      16.94020338      -0.18873009      -0.00362782       0.01165103
C       22.84024719      20.33413336      22.90327311       0.20866169      -0.21327981      -0.18092854
C       22.66133371      18.89395631      23.38327480      -0.10175525       0.22577052       0.11893426
C       21.27685900      18.72559522      24.00634475      -0.02804587      -0.08639012      -0.25734908
C       15.09198899      17.47130821      20.66707004      -0.47289134       0.01203433      -0.40520742
C       13.81704100      17.41070116      20.06133867       0.47949156       0.38794173       0.06991138
C       13.41254992      18.39371975      19.16761957      -0.02967969      -0.00124957      -0.07939856
C       14.28126490      19.41947191      18.88499056      -0.11055487      -0.02457622      -0.16269506
C       15.58286845      19.48506231      19.43203896      -0.02198379      -0.07727748       0.17538232
C       15.98160159      18.49178701      20.31836834       0.13672028       0.12304445      -0.06765001
F       20.54704797      22.28069615      13.58666406      -0.14673127       0.06123069      -0.15657753
H       12.42522792      15.71900911      25.48664854      -0.02327733       0.03695515       0.07751954
H       11.02298322      16.76823017      25.23184871       0.02338706       0.05291978       0.03740638
H       10.82628267      15.00290003      25.23669703       0.03804601       0.01725293       0.03632630
H       12.34550192      16.62847713      23.14002124      -0.14535635      -0.24642587       0.06689159
H       10.60319615      17.78925516      22.22470964      -0.09495316      -0.03719797       0.02154772
H        9.07798127      16.91335730      21.91062192       0.01404786       0.11653890       0.05906923
H        9.51450117      17.36764636      23.57625344       0.00588448       0.01104372      -0.08670303
H       12.30202751      11.39263500      24.00724338       0.07399574      -0.12765236      -0.02734281
H       14.23268215      11.17627319      22.42460699       0.02168390      -0.04154778       0.00205849
H       14.99652720      13.23025604      21.22672226       0.01533070       0.01719329      -0.01319149
H       11.36884730      15.26424672      20.73198694       0.15326809       0.25237006      -0.25762914
H       11.38716809      16.54658100      19.51003910       0.02250231      -0.11928013       0.17724171
H       11.45161198      14.33111090      18.40869045      -0.03875169      -0.08292675      -0.07193771
H       12.98024898      15.17728502      18.12506968      -0.00289405      -0.04406048      -0.03073786
H       12.89159374      13.88385880      19.32962328      -0.02118776       0.00537818      -0.02854171
H       16.32531053      14.89441275      22.57293407       0.10839302       0.08789384      -0.02662847
H       17.26225993      16.20864621      21.84581123       0.00033696      -0.16419487       0.04564513
H       17.36603297      15.00139213      24.81869946       0.00986730      -0.04600179       0.01082331
H       18.51587521      16.03964518      23.97118585       0.02311924      -0.03292678       0.03073737
H       17.78289601      16.58331467      25.48467400       0.02904249      -0.01774674       0.06459336
H       14.85243796      15.45092833      24.58943971      -0.05039109      -0.09551104       0.02584589
H       15.27723058      16.84294838      25.58961048      -0.02698983       0.01846915       0.06549183
H       14.35241328      17.06686507      24.10481263      -0.19004504       0.05717226      -0.03419717
H       16.65230251      18.67478467      24.58279786      -0.03670847      -0.12694264      -0.22160370
H       15.96564197      18.60510510      22.93713740       0.13442992      -0.01514950       0.13919619
H       20.18016067      18.54357510      22.13545944       0.02377377       0.16011667       0.19555594
H       20.35286269      21.19846719      23.34735800       0.06534692      -0.14134147      -0.28679395
H       19.91830563      21.78910036      20.56551058       0.23917686      -0.13537719      -0.19663784
H       21.93078753      22.09661540      18.44801890      -0.13526475       0.19695866       0.00655105
H       22.03482669      24.12239328      17.54001294      -0.34040286       0.03256805      -0.06202683
H       19.39671591      25.63337467      17.27106817       0.11929121      -0.03943133       0.00581787
H       20.82573235      27.36020974      16.15522825       0.00901435       0.07608883      -0.04781144
H       22.20316155      26.25939900      16.21868474       0.05978663       0.02112869      -0.02647407
H       20.80986428      25.87080428      15.21109967       0.04101498       0.01943007      -0.05054155
H       20.56920118      27.33076883      18.63280326       0.02277998       0.08429187       0.03598637
H       20.43501204      25.80378031      19.50259940       0.00168395       0.04767114       0.04928627
H       21.97330881      26.26943522      18.77113550       0.10245483       0.03570409      -0.00614928
H       21.53251921      19.96351077      15.74163622      -0.11048672       0.03669687      -0.05658549
H       19.87926576      20.50100003      15.45241861       0.14568406       0.02885347      -0.01471937
H       20.09160478      19.73114458      13.04800112       0.06800841      -0.08236326       0.06823581
H       20.41532806      18.39121072      14.18688347       0.02808067       0.21598893      -0.14633058
H       27.43514121      15.99721074      15.14575371      -0.03829421       0.00669147      -0.02500152
H       25.79825992      16.10160588      14.45540714       0.07994417      -0.08509944       0.01794293
H       26.89713372      14.82590810      13.92840082       0.00582500      -0.01060217       0.07957624
H       29.36025316      16.77013883      13.71084033      -0.00989995      -0.02550582      -0.04890867
H       28.84499687      15.38776734      12.73094363       0.08560568       0.02821801      -0.00654385
H       29.02133623      16.96676610      11.97304259       0.08750559      -0.02313105       0.00555170
H       26.74485042      19.78051249      11.87291889       0.01931639       0.09130967       0.00651641
H       28.35952314      19.07829269      11.93350471       0.06090916       0.01782626      -0.00995051
H       27.05827376      18.24328121      11.06640998      -0.01589726      -0.02247033      -0.05828068
H       27.13371046      19.88607709      14.41857570      -0.00161719       0.08745481       0.01632830
H       27.06818422      18.40495384      15.36771646       0.03387857       0.00855740       0.00437822
H       28.53176452      18.80840357      14.45618612       0.10515077       0.02987480       0.01712032
H       23.60365261      20.18706951      12.25784562      -0.21259709       0.06481328      -0.00324118
H       21.94444550      20.73888934      11.91395239       0.15652385      -0.07813004       0.02307033
H       23.06481517      22.42548668      13.31419477       0.01398459      -0.00009056       0.07572128
H       23.50694757      21.19880204      14.51077939      -0.08434235       0.03493078      -0.11893776
H       19.16834999      24.28358509      15.01628348      -0.05987719      -0.08861560       0.04772880
H       19.03214467      22.52938836      15.18975653       0.02745736       0.12744464       0.05804423
H       18.65617504      23.56589287      16.56157479       0.02211859      -0.00163209      -0.07888307
H       20.83204297      19.68757901      18.54568524      -0.01137416      -0.05112172       0.14154431
H       20.19759213      19.25018540      20.13730657       0.00603219      -0.05465981      -0.04630064
H       18.41248049      18.95507625      18.68715265       0.03817212       0.21546135       0.07621484
H       17.94349864      21.79280869      19.71175336       0.06815186      -0.25188210       0.06556133
H       17.75281443      20.34286391      20.71725743      -0.00822678       0.06795948      -0.05473665
H       15.39605780      21.12248440      17.35514309       0.06355541       0.05470854       0.03671383
H       16.63816798      22.24943924      17.93598627      -0.07405909      -0.12744762      -0.07923084
H       17.46458722      20.97781764      15.95912435      -0.03321068      -0.06008929       0.04268115
H       17.14484771      19.44251286      16.81825251      -0.00238944       0.19259811      -0.03674506
H       23.76516449      20.45902269      22.34033172      -0.17032058       0.02792235       0.14997853
H       22.83576851      21.02098868      23.75522396       0.02918394      -0.02939668      -0.06061739
H       23.43268432      18.65963137      24.11462561       0.03363719      -0.05984100      -0.04022247
H       22.77106136      18.21557569      22.53598665       0.06174946       0.02131938       0.00759081
H       21.19259567      19.32422674      24.91710153      -0.03753381      -0.07320624      -0.09093715
H       21.09791935      17.68197891      24.26664111      -0.01472842       0.03524029       0.05811858
H       12.43245378      18.37939456      18.71921639      -0.07376690       0.02318240      -0.05040218
H       13.93512679      20.20528284      18.23377405       0.01267808       0.02254629       0.01396500
H       16.96719800      18.48984292      20.75505893      -0.00768061       0.05108302      -0.04544132
