151
Properties=species:S:1:pos:R:3:MACE_forces:R:3 energy:=T -221.333571397899=T gnorm:=T 0.007741610387=T xtb:=T 6.7.1=T (edcfbbe)=T MACE_energy=-90873.41231411177 pbc="F F F"
C       11.50394809      15.75293414      24.92966282      -0.11078691       0.01657013      -0.39820636
N       12.18647791      13.32894275      23.69535226      -0.18962916       0.16610275       0.19901059
O       10.57231206      15.67307385      22.66683862       0.09213455      -0.18967350       0.13755145
C       11.78014147      15.69446482      23.42749834       0.04789582       0.22018238       0.15934011
N       13.20144801      16.31087400      20.54936627      -0.02538155      -0.00891581       0.29980179
O       17.99630210      18.42046153      23.09784968      -0.22537340      -0.54763841      -0.39900390
C        9.98180595      16.94160862      22.48557194       0.15293545      -0.13301373       0.01306773
N       20.44869614      20.61185435      22.54883850      -0.18408264       0.22441452       0.20873297
O       22.25324382      17.14718805      14.23821709       0.34329474       0.80614028      -0.36006517
C       12.55779637      14.43989393      23.07416589       0.12099247       0.20477106      -0.27365871
N       21.74296460      20.71673471      22.02120613      -0.02636112      -0.25657997       1.01732079
O       22.66664528      22.41110878      16.33571200      -0.45102886      -0.11076820      -0.33032453
C       12.83632395      12.20498730      23.45522357       0.09675780      -0.28021296      -0.04117569
N       21.02668202      22.29729104      18.88783126       0.61590379      -0.49987393       0.08071271
O       19.18490769      23.60236920      18.99031228      -0.02364133       0.06450260      -0.05641173
C       13.90987917      12.11958737      22.58141181      -0.04626823       0.05115676      -0.00284923
N       20.63885324      23.35936664      16.13105910      -0.14488825       0.37033451       0.10484462
O       18.70470042      20.63406698      17.54844554       0.01382679       0.10609101       0.04263689
C       14.29522735      13.26907593      21.91788856      -0.11702143       0.04948650       0.06503550
N       22.05420173      19.16756909      13.21495043      -0.24526003       0.20657701      -0.26735541
O       23.05655980      21.16986837      20.24952312      -0.51782326      -0.10423503       0.19732275
C       13.61313680      14.46323103      22.15009078      -0.05740354      -0.34452154       0.11135355
N       27.26980261      16.68133969      13.06347117      -0.02139257       0.00126449      -0.08429593
O       18.55602864      19.91142413      24.68134506       0.19258572      -0.22888195      -0.42900376
C       14.02958088      15.68284093      21.45082437       0.33696668       0.11381362       0.17750588
N       16.37587762      20.65171013      19.21719732      -0.00396975       0.29067155       0.04043148
C       12.04541788      15.72012230      19.92219408      -0.25261336      -0.40711185      -0.30444941
C       12.44409909      14.86359139      18.72113614      -0.06035777       0.12110371       0.08158734
C       15.21424601      16.37537825      21.58008567      -0.12680858      -0.35907917       0.03950530
C       16.37741283      15.99520806      22.44203002      -0.10498880       0.09727749       0.12292923
C       16.44911175      16.68129868      23.82468719       0.22517275       0.13982651      -0.00374612
C       17.59510928      16.05379215      24.62424583      -0.10383574       0.15267859      -0.16932460
C       15.13838650      16.50547445      24.58846917       0.20766210       0.13255298      -0.17346584
C       16.69878605      18.18772421      23.66875753      -0.54738267      -0.08283701       0.44169945
C       18.82020479      19.24777770      23.70273672       0.31962192       0.77558158       0.54195826
C       20.18693011      19.25618745      23.03362910       0.05131259      -0.25022695       0.28405867
C       21.93906335      21.08086595      20.74628204       0.35346977       0.53275505      -1.05068993
C       20.67503339      21.37200755      19.93650470      -0.15480858      -0.01045083       0.00780653
C       20.27673703      23.33307631      18.50575414      -0.16043438       0.30564577      -0.02070425
C       20.90789902      24.12475625      17.35118639       0.08432876       0.25138183       0.20319268
C       20.44176175      25.58387015      17.27953496       0.09924835      -0.14350748       0.06527735
C       21.08861300      26.29166860      16.09103910      -0.13039033      -0.16027294       0.06573749
C       20.82693628      26.29063578      18.57887383      -0.24541169      -0.15797244      -0.08580325
C       21.60649871      22.53905174      15.71392430       1.00024543      -0.28001151       0.00266090
C       21.41890022      21.67610471      14.45720899       0.47096094      -0.33969646       0.29123824
C       20.77549244      20.35198721      14.88674272      -0.04682983       0.07478290      -0.29041131
C       20.71165869      19.37607991      13.71039265      -0.25863442      -0.18063045       0.34369848
C       22.76363923      18.10981036      13.65732314      -0.70718361      -1.19523819       0.47519462
C       24.18027299      18.14925476      13.40956343       1.11179039      -0.24694418       0.21226105
C       25.38065610      18.06037770      13.40352883      -0.93185787       0.22487178      -0.25877063
C       26.84008584      18.05363097      13.36285684       0.24512807       0.14286015       0.06122938
C       26.77609601      15.69288705      14.00107181      -0.12220309      -0.09949853       0.09244886
C       28.69152860      16.50634421      12.84572143      -0.05379438       0.05052384       0.01020408
C       27.26911321      19.01277228      12.24127089      -0.00884797      -0.07015099       0.08973305
C       27.32982396      18.59767601      14.72318681       0.02830482      -0.16024965      -0.04996311
C       22.65810355      20.36886402      12.68853012       0.21299327       0.41157437      -0.03684997
C       22.77447461      21.42979582      13.78551401      -0.12633604      -0.05084243       0.06807911
C       19.28177644      23.43645579      15.63303173      -0.34426308      -0.07040461      -0.17496718
C       20.15750704      20.03246952      19.38020358      -0.27464357       0.27884849      -0.14187080
C       18.72544660      20.04438165      18.84501636       0.04297815      -0.15534685       0.29538557
C       17.71653153      20.76405641      19.75719940       0.29885834      -0.03752301      -0.06815629
C       16.37374494      21.26074957      17.90001718       0.18614677      -0.07910065      -0.29906318
C       17.40075509      20.56760939      16.99717886      -0.22248737       0.00225120       0.02302415
C       22.83999656      20.34808433      22.90136089       0.18015791      -0.26803623      -0.11541133
C       22.63343789      18.91787865      23.39726706      -0.06061630       0.19774424       0.08076992
C       21.25258250      18.79200882      24.03974281       0.05777258      -0.06181405      -0.29487288
C       15.12152774      17.49640774      20.69890671      -0.47777271      -0.03994940      -0.40210436
C       13.85722212      17.41509039      20.07385750       0.44932502       0.46589562       0.05570756
C       13.45157921      18.39170813      19.17427632      -0.07433112      -0.04512540      -0.07112278
C       14.30696033      19.43352439      18.90943879      -0.03000451       0.04164721      -0.17292980
C       15.59708209      19.52347422      19.48027351      -0.10203999      -0.12353832       0.16509474
C       15.99740665      18.53423146      20.37073967       0.10733075       0.13399780      -0.09442476
F       20.60473749      22.31459750      13.51687634      -0.19079243       0.06278378      -0.13755006
H       12.44159032      15.74343273      25.47532721       0.06933019      -0.00327329       0.08238132
H       10.96035688      16.65956466      25.18101604       0.00378494       0.06417723       0.02919253
H       10.91467925      14.88680168      25.21317254       0.00995872       0.02671236       0.06140583
H       12.36733034      16.57307133      23.11737890      -0.16101062      -0.23503658       0.07351576
H       10.66686069      17.61669631      21.96407620      -0.02438074       0.03681007      -0.01954195
H        9.09831499      16.77474841      21.87753167      -0.04479353       0.12175544      -0.01972522
H        9.68905534      17.39568724      23.43208955      -0.04374753       0.03148939       0.04387936
H       12.47953963      11.33903125      23.99668699       0.07403471      -0.09174495      -0.03590829
H       14.42003547      11.18359521      22.42168193       0.01099764      -0.06195853      -0.00300950
H       15.11274012      13.25327899      21.21139304       0.01197596       0.02945240      -0.00474297
H       11.51235966      15.11223212      20.65611249       0.07752993       0.28546848      -0.20118425
H       11.38462111      16.52768846      19.59958480       0.01699039      -0.11694303       0.14831483
H       11.55214855      14.47247735      18.23518545       0.03380967      -0.04000596      -0.03926565
H       13.00613152      15.46000707      18.00292639      -0.01534917      -0.07246500      -0.01096274
H       13.06394496      14.02615931      19.04212511      -0.03652148       0.04133804      -0.03611791
H       16.34460077      14.91819086      22.61568924       0.13731319       0.05087219      -0.01663316
H       17.29856028      16.22725031      21.90426262       0.03169161      -0.15201725       0.03110198
H       17.37380358      15.01198429      24.84043441      -0.00448965      -0.06622379       0.00748981
H       18.52460184      16.09891870      24.06099733       0.05307559      -0.03568633       0.03043650
H       17.73477729      16.57963709      25.56650593       0.03486084       0.00994981       0.07395233
H       14.87116973      15.45307264      24.63494950      -0.05657138      -0.03576967       0.03076682
H       15.23496460      16.88610794      25.60192555      -0.02711452       0.01478430       0.08926608
H       14.33705840      17.04442465      24.09172678      -0.12035412      -0.01145130       0.02635426
H       16.65463585      18.69209526      24.63802504      -0.02595050      -0.13257048      -0.21396085
H       15.96089983      18.62876521      22.99581266       0.17036015      -0.02517179       0.12691405
H       20.15966814      18.58204476      22.17233489       0.08217491       0.16604393       0.16648666
H       20.34921205      21.25968060      23.33366522       0.03014160      -0.15607336      -0.28484403
H       19.92646961      21.83864889      20.57797943       0.19068299      -0.12216662      -0.20666095
H       21.92435260      22.12857241      18.44618775      -0.16451897       0.19752670       0.00605422
H       21.99485888      24.11480164      17.48450896      -0.32554832       0.03551880      -0.03669435
H       19.35308873      25.61448794      17.18882480       0.11059909      -0.03229237      -0.00319852
H       20.75254591      27.32420145      16.04657306       0.01581681       0.05972271      -0.02918000
H       22.17246219      26.28683775      16.19863043       0.05048129       0.02099096      -0.02129896
H       20.84028685      25.80897903      15.15005909       0.02621323       0.01438889      -0.07633397
H       20.53857022      27.33632299      18.53250912       0.00963036       0.09549237       0.03724034
H       20.32291463      25.83366272      19.42388208      -0.01650432       0.01371243       0.09159736
H       21.89895588      26.23450103      18.74095234       0.16529283       0.02484614       0.00618922
H       21.40765019      19.92792340      15.66818027      -0.08018375       0.00812244       0.01577330
H       19.78848905      20.51647321      15.31224508       0.06027390       0.04665249       0.03456076
H       20.09459304      19.78459034      12.90667705       0.05082523      -0.09319723       0.06122298
H       20.31097729      18.41527566      14.03637004       0.05103173       0.19355320      -0.12569393
H       27.31015037      15.70429603      14.96390850      -0.05408596       0.00319210      -0.05587795
H       25.71538348      15.85456709      14.18664950       0.14258848      -0.13469896       0.01804121
H       26.90151581      14.70584342      13.55620219      -0.01598525       0.03096595       0.07643175
H       29.29411633      16.65355177      13.75520140      -0.00468484       0.01532128      -0.07061026
H       28.84862805      15.48540602      12.50010861       0.07686977       0.05006327       0.01212339
H       29.04062449      17.18218601      12.07174629       0.09660035      -0.02884760       0.00957927
H       26.71659461      19.94451939      12.33602904       0.05235969       0.00970527       0.00070241
H       28.32908106      19.23796665      12.30915234       0.06712110       0.00746646      -0.01942863
H       27.05079010      18.56942448      11.27410515      -0.00537412      -0.00325570      -0.02449449
H       26.98183216      19.61898493      14.85705007      -0.00166109       0.03640129       0.00205234
H       26.94092809      17.99530922      15.54179826       0.04854075       0.02770075      -0.00766750
H       28.41642522      18.59079560      14.75835358       0.04739079       0.02024061       0.01800134
H       23.64406725      20.13427855      12.28803196      -0.25116356       0.10620163      -0.01652172
H       22.01961721      20.74200011      11.88297749       0.14217419      -0.10603679       0.00775652
H       23.13386709      22.36724973      13.36078326       0.01303160       0.01132476       0.09715394
H       23.47623272      21.10684201      14.55548473      -0.10013495       0.05713878      -0.12980472
H       19.14332530      24.33141866      15.02597804      -0.05902380      -0.10098246       0.00934121
H       19.02814716      22.56858464      15.03661954       0.03908486       0.13224365       0.08357636
H       18.61099591      23.47535664      16.48912641      -0.05263995       0.00304358      -0.02564274
H       20.82258948      19.71666983      18.57367792      -0.02034484      -0.05787596       0.13142931
H       20.20421218      19.29097592      20.17468540       0.00812350      -0.05916263      -0.02385005
H       18.40093489      18.99309945      18.73463521       0.05648028       0.24134257       0.06268084
H       17.95682011      21.83134939      19.76846459       0.10022232      -0.25290989       0.07829849
H       17.76726148      20.38087675      20.77402600       0.00126671       0.04074284      -0.06658396
H       15.39371757      21.21456959      17.43564332       0.06292501       0.05711870       0.03993406
H       16.65969304      22.31031175      18.02448650      -0.07218378      -0.12263596      -0.09437046
H       17.45027113      21.05423209      16.02308988      -0.01035337      -0.05540065       0.02230731
H       17.11553622      19.51127208      16.86513295       0.00826365       0.21127921      -0.03051944
H       23.76154269      20.44743877      22.32824474      -0.17435584       0.03003285       0.15865389
H       22.85958696      21.04418177      23.74605172       0.02648639      -0.02952333      -0.05488637
H       23.41033142      18.66622314      24.11738886       0.01606816      -0.04434370      -0.03138414
H       22.70853273      18.23001247      22.55279813       0.07696167       0.04081960       0.05195722
H       21.18596512      19.42128665      24.93021320      -0.04483494      -0.07164391      -0.05253842
H       21.05855857      17.76088385      24.33425553      -0.03635747       0.02628128       0.04377798
H       12.48237722      18.35589234      18.70027510      -0.03833886       0.01761632      -0.02655010
H       13.96046882      20.21240513      18.25055407      -0.01179200       0.01943840       0.01359699
H       16.97562042      18.54327486      20.82178734       0.00279621       0.05751364      -0.01195255
