151
Properties=species:S:1:pos:R:3:MACE_forces:R:3 energy:=T -221.333635650506=T gnorm:=T 0.003979450389=T xtb:=T 6.7.1=T (edcfbbe)=T MACE_energy=-90873.43527673886 pbc="F F F"
C       11.04839735      15.52776595      24.78669739      -0.05265560       0.02742270      -0.40994559
N       11.96576317      13.18747171      23.57588658      -0.24566986       0.09299399       0.19818194
O       10.41283231      15.53761797      22.41944089       0.09145016      -0.17508093       0.13136310
C       11.51153638      15.54537336      23.33026823       0.03139993       0.20418399       0.16526266
N       13.18436975      16.23377058      20.56150866      -0.03624191       0.04797212       0.30038922
O       17.69049722      18.43723900      23.55370350      -0.06911778      -0.64249825      -0.17042559
C        9.80417615      16.79725590      22.23672277       0.11569830      -0.10720462       0.05153430
N       20.03567755      20.87426392      22.82114818      -0.25749833       0.20249196       0.19887893
O       22.68924800      17.03360846      14.16870067       0.31541007       0.70140191      -0.35016550
C       12.35798213      14.32454659      23.02085499       0.16953558       0.24929042      -0.25358402
N       21.39801176      21.00679798      22.53297849      -0.16697824      -0.21476617       0.96769311
O       22.99778231      22.38626672      16.59744956      -0.43449905      -0.11668462      -0.31038053
C       12.66412731      12.08611774      23.36570825       0.09986448      -0.22409388      -0.05163417
N       21.15806335      22.29175647      19.19734559       0.58375512      -0.49112003       0.13997725
O       19.35698783      23.64994684      19.12657254       0.04638784       0.06437465      -0.05819785
C       13.81534981      12.05597397      22.59451064      -0.00693163       0.06124662      -0.01866514
N       20.96473999      23.32915267      16.39408407      -0.10761984       0.30331428       0.11486143
O       18.91694416      20.56076348      17.79251892       0.02117382       0.10934960       0.05673052
C       14.22978644      13.23651560      22.00517056      -0.12733407       0.01871040       0.06528299
N       22.39096012      19.15584724      13.42328833      -0.27042805       0.34830100      -0.13060049
O       22.98527877      21.36986314      20.97489455      -0.52921437      -0.13153207       0.09036055
C       13.49405370      14.40477861      22.20116821      -0.05209462      -0.33181918       0.12156447
N       27.45366608      16.55444111      12.20181269      -0.03349306      -0.05508728      -0.01491006
O       17.74843774      20.50958643      24.41094851       0.30557557      -0.40983726      -0.29903212
C       13.93433259      15.64616032      21.55367574       0.29877449       0.11965188       0.20689144
N       16.46925010      20.51480014      19.28849398      -0.00030396       0.28706202      -0.02222920
C       12.12517063      15.58749115      19.82752455      -0.21510002      -0.46044554      -0.31623892
C       12.69032123      14.67496097      18.74000503      -0.07806318       0.18015831       0.09788750
C       15.08668776      16.36787502      21.77894896      -0.14531743      -0.34338105       0.04872130
C       16.15359644      16.03142735      22.77182771      -0.08676043       0.07247894       0.11083534
C       16.05417377      16.74435247      24.14045979       0.25303528       0.15333908      -0.00236384
C       17.08593632      16.12745905      25.08874551      -0.07220429       0.13805496      -0.19116999
C       14.65741406      16.59392909      24.73919058       0.20561701       0.15797855      -0.14117647
C       16.33468048      18.24284990      23.98506993      -0.59811109      -0.02621915       0.31143498
C       18.27600915      19.57776167      23.84175965       0.06374049       1.04950159       0.24719411
C       19.73346721      19.57651050      23.41484506      -0.02418831      -0.16363910       0.26818503
C       21.80293343      21.26519577      21.28049769       0.52587643       0.45589670      -0.99307226
C       20.67968318      21.44032930      20.25798639      -0.13073626       0.02772654       0.01633908
C       20.47848258      23.34586159      18.73816701      -0.24855233       0.28705854      -0.07045464
C       21.21454059      24.09265436      17.61854981       0.06490554       0.24727162       0.18781283
C       20.82134803      25.57134792      17.50731183       0.10944881      -0.15197800       0.09310821
C       21.60203540      26.24275318      16.38008155      -0.17134750      -0.19961892       0.03519913
C       21.11111905      26.27005292      18.83539823      -0.20478134      -0.16720813      -0.01965606
C       21.93489051      22.50809276      15.98103429       0.97061990      -0.24859984       0.05246418
C       21.74086414      21.62546318      14.74158576       0.47141758      -0.33874120       0.23699382
C       21.19005438      20.27506213      15.21785413      -0.06928078       0.10853360      -0.30192349
C       21.09629536      19.29119381      14.05173161      -0.23130278      -0.22430168       0.33908612
C       23.11465416      18.03220241      13.58361788      -0.64334589      -1.15442755       0.55481163
C       24.42554954      18.04426407      12.98901465       1.15257312      -0.39352707      -0.29201988
C       25.53708372      17.90231016      12.54751404      -0.95816152       0.28232450       0.31797221
C       26.87477711      17.88098652      11.96132598       0.15206190       0.11067982      -0.24640421
C       27.53757695      16.19740006      13.60325090      -0.04446381      -0.01483292       0.14268650
C       28.70936682      16.29248238      11.52925761      -0.05859352       0.03107128      -0.00799626
C       26.69531538      18.12230234      10.45313158       0.07885359      -0.02908894       0.10248917
C       27.66898889      19.05296057      12.57972338       0.02112274      -0.20381228       0.01220887
C       22.90840758      20.39270172      12.88867237       0.19285987       0.38412528      -0.05466409
C       23.06956770      21.42688286      14.00635314      -0.16603791      -0.01435931       0.06865239
C       19.61822408      23.41147438      15.86784698      -0.39665760      -0.05508186      -0.21391769
C       20.25092321      20.05522018      19.74271619      -0.26688391       0.24078093      -0.16450926
C       18.86424170      19.99456363      19.09827719       0.01606900      -0.13247806       0.31687120
C       17.76149386      20.68857364      19.91847002       0.30644974      -0.05977665      -0.01705216
C       16.53907420      21.09697312      17.96149646       0.19032262      -0.07916538      -0.26081763
C       17.66075853      20.43900843      17.14906526      -0.22848185      -0.01016974      -0.01299712
C       22.33168501      20.78137754      23.62548479       0.17745112      -0.24016699      -0.07999321
C       22.08243172      19.40021759      24.22921809      -0.06379442       0.23468429       0.07527275
C       20.61586326      19.28215826      24.64152021       0.13473914      -0.11931626      -0.29569009
C       15.06716947      17.45863582      20.85349702      -0.44060572      -0.07046564      -0.44606289
C       13.86938830      17.33267598      20.11365019       0.42620474       0.47727278       0.08142500
C       13.54593423      18.25992283      19.13331494      -0.04153619      -0.04147653      -0.07204678
C       14.42400758      19.28728234      18.88714037      -0.03693902       0.04395204      -0.19215435
C       15.65891346      19.41480623      19.56337885      -0.10237730      -0.13165321       0.19355080
C       15.96723848      18.48519694      20.55230209       0.14272453       0.16284159      -0.07992591
F       20.85582391      22.20165355      13.82418913      -0.16692883       0.04759637      -0.07407809
H       11.91099267      15.49189384      25.44439375       0.04855820       0.00096489       0.08402726
H       10.46978783      16.41881332      25.01297333      -0.00712186       0.07399116       0.03377341
H       10.43725735      14.64592631      24.95156319       0.00822011       0.03042620       0.05999694
H       12.11264659      16.44758515      23.13573540      -0.17359857      -0.24050067       0.03185151
H       10.54277043      17.54258577      21.92246356      -0.05692410       0.00105224      -0.01485769
H        9.06464998      16.66013548      21.45186516      -0.01894652       0.13131687       0.02806850
H        9.30859753      17.14351113      23.14625400      -0.01712650       0.03083597      -0.03233100
H       12.28062620      11.19608826      23.84531753       0.08035513      -0.10192358      -0.02098590
H       14.36510696      11.13933363      22.45410234       0.01029890      -0.05879992       0.00372622
H       15.11212188      13.26307897      21.38173649       0.00745883       0.02948180      -0.00932772
H       11.51022071      15.00954230      20.52063651       0.10464816       0.27801520      -0.20712913
H       11.50143753      16.36307299      19.37924159      -0.00314883      -0.09917691       0.15276484
H       11.88053000      14.21693434      18.18037436      -0.03918713      -0.06677973      -0.07383389
H       13.31532471      15.24493070      18.05602822       0.02226914      -0.02905058      -0.04869580
H       13.29336379      13.88814002      19.18726868       0.00489824      -0.03726211      -0.01376776
H       16.12136202      14.95706143      22.96318880       0.13308286       0.06437382      -0.00110549
H       17.12642409      16.27225996      22.33882363       0.01127851      -0.15774057       0.04318663
H       16.85256477      15.08097629      25.26479048      -0.00672832      -0.07467017       0.01566392
H       18.08319012      16.19387751      24.66144429       0.05797007      -0.04229978       0.03634523
H       17.08204170      16.64654480      26.04477516       0.02944354       0.01465881       0.08121529
H       14.36605782      15.54711800      24.75285819      -0.04684502      -0.03456875       0.02758812
H       14.63623539      16.97546274      25.75689514      -0.03010503       0.00863432       0.08141636
H       13.93213624      17.14827746      24.15072097      -0.10849422      -0.02582751       0.00271390
H       16.19624216      18.77070299      24.93381190       0.01569137      -0.14396456      -0.18072652
H       15.66973268      18.68743348      23.23915452       0.15820289      -0.05182544       0.14240542
H       19.88232864      18.80056538      22.65761275       0.02199734       0.16814796       0.15373239
H       19.73596944      21.60665755      23.46726472       0.09699756      -0.17686722      -0.22052786
H       19.84202532      21.94740858      20.73853435       0.23552563      -0.15791617      -0.17283318
H       22.08947664      22.09355678      18.85197499      -0.16569810       0.20436518       0.02103118
H       22.29156866      24.02977230      17.80569450      -0.31776292       0.04645485      -0.04340743
H       19.74925540      25.64640708      17.31124466       0.09581237      -0.03310011       0.02619728
H       21.27472009      27.27170560      16.26341386       0.02492472       0.08230879      -0.03094145
H       22.66535960      26.24183406      16.61021593       0.08960083       0.01886895      -0.01502301
H       21.45949666      25.72543067      15.43476323       0.01349981       0.02925778      -0.07510642
H       20.88977633      27.33062292      18.75219210       0.02411859       0.06778303       0.04448428
H       20.49607751      25.85168111      19.62925093       0.03191102       0.05867826       0.00944074
H       22.15845383      26.15376643      19.11027617       0.05861814       0.03381164      -0.01399716
H       21.88746444      19.89205410      15.96394277      -0.06915396       0.01424105       0.00185639
H       20.22046153      20.39848613      15.69765321       0.07209532       0.03667026       0.02413908
H       20.38111939      19.65587465      13.30850059       0.04949031      -0.07547291       0.07062233
H       20.78674851      18.30783082      14.40876748       0.02682373       0.19739192      -0.13035376
H       28.35197285      16.71421922      14.13502401      -0.07167415      -0.02952268      -0.02127518
H       26.59386834      16.42397737      14.09724950       0.14673139      -0.08873420       0.02101867
H       27.71389964      15.12441270      13.67449303       0.00012780       0.06200465       0.05181292
H       29.53711295      16.92353174      11.88582147      -0.01390031      -0.02338794      -0.04960430
H       28.97476281      15.25313108      11.71716596       0.05017897       0.04766294      -0.04588759
H       28.59520501      16.42223964      10.45743723       0.11022285      -0.00898960      -0.00812642
H       26.01047825      18.95158020      10.29794523       0.04569904       0.02911021      -0.01379294
H       27.64510693      18.36944008       9.98911417       0.05685664       0.00074296      -0.06904290
H       26.27943448      17.23445548       9.98624042      -0.01282827      -0.01977062      -0.01829480
H       27.18938219      19.99360136      12.32425376      -0.01312220       0.05130573      -0.01645048
H       27.70261257      18.96729404      13.66299283       0.03059801       0.02321024      -0.00106835
H       28.68350271      19.06092942      12.19010279       0.05530259       0.02591015      -0.01591636
H       23.86830362      20.20624276      12.40813913      -0.26252130       0.12978385       0.01785609
H       22.19802011      20.76986530      12.14634058       0.16828804      -0.09447788      -0.00449867
H       23.39155789      22.37976545      13.58593764       0.00617912       0.00686331       0.08328438
H       23.81270829      21.09950633      14.73334069      -0.08432417       0.04350901      -0.10921909
H       19.53719892      24.21081837      15.13062113      -0.06735306      -0.08491010       0.01985938
H       19.31854443      22.47648736      15.40856816       0.02352395       0.12439560       0.05479640
H       18.94320115      23.61216680      16.69738055      -0.00662851       0.00306134      -0.04263125
H       20.98702745      19.71766459      19.01013379      -0.03774567      -0.05227962       0.13414059
H       20.25347011      19.35805286      20.57815032       0.01372343      -0.05180847      -0.02590008
H       18.59161376      18.92864312      18.98733215       0.03765351       0.23898951       0.07077087
H       17.95883998      21.76550465      19.92251097       0.11182836      -0.21770951       0.09737173
H       17.75837459      20.33233073      20.94592704      -0.01567554       0.05019136      -0.08888230
H       15.60245791      20.99420265      17.42301251       0.06632050       0.06695360       0.05221843
H       16.76505067      22.16197305      18.08037345      -0.05531288      -0.12228292      -0.09840654
H       17.76344568      20.92340861      16.17759061      -0.01125270      -0.06855923       0.02470020
H       17.42852246      19.37186069      17.00303442       0.00093960       0.20073119      -0.02196597
H       23.33688335      20.86858364      23.21366474      -0.19870613       0.02957923       0.11565104
H       22.17958852      21.55940291      24.38058758       0.04036391      -0.04170822      -0.04520514
H       22.73099766      19.25657998      25.09181704       0.02980727      -0.04324918      -0.02354417
H       22.31805401      18.63571027      23.48699454       0.06335024       0.03057511       0.05881052
H       20.38436678      20.01022463      25.42290661      -0.04731690      -0.07219972      -0.03861561
H       20.39944453      18.28466847      25.02240361      -0.04420248       0.02680051       0.03156119
H       12.62426867      18.19611210      18.57529009      -0.03660088       0.00491264      -0.03410080
H       14.13737768      20.02171665      18.15292709      -0.00711119       0.02044294       0.02244112
H       16.89934830      18.53034718      21.09205480       0.00114597       0.03142998      -0.01917916
