151
Properties=species:S:1:pos:R:3:MACE_forces:R:3 energy:=T -221.333220089271=T gnorm:=T 0.003738068092=T xtb:=T 6.7.1=T (edcfbbe)=T MACE_energy=-90873.41719298395 pbc="F F F"
C       10.87722617      15.93386491      24.70887989      -0.04477672       0.03354317      -0.39005994
N       11.78275214      13.44133262      23.82292852      -0.25747258       0.06829973       0.16667930
O       10.36664728      15.67313329      22.32660799       0.04608003      -0.13095928       0.16240880
C       11.41610888      15.76708668      23.28946756       0.01440908       0.21860701       0.12270644
N       13.21488827      16.13988099      20.60618945      -0.14721870       0.08063423       0.29218124
O       17.72419432      18.41600978      23.60939936      -0.09786540      -0.67120547      -0.25165714
C        9.77749989      16.90697486      21.98052138       0.12955473      -0.10766529       0.05155080
N       20.16257025      20.72866814      22.87338133      -0.33045352       0.18088991       0.14615836
O       22.78055592      17.17987562      13.53250499       0.36086050       0.70618183      -0.20755344
C       12.23921659      14.49707198      23.16829775       0.19516189       0.24452324      -0.31809642
N       21.50845957      20.81487588      22.50443762      -0.08540053      -0.25259806       0.98775011
O       22.91787468      22.35920513      16.63913757      -0.41595625      -0.10696530      -0.31611151
C       12.45906156      12.30632402      23.77808332       0.11496098      -0.20865056      -0.00226696
N       21.08500721      22.19014387      19.21583896       0.64412733      -0.49309750       0.18940157
O       19.22277358      23.46627112      19.17682636      -0.01122675       0.10725598      -0.07998650
C       13.64964422      12.16229902      23.08509174      -0.00254527       0.04032585      -0.00895910
N       20.84101209      23.19133881      16.39501422      -0.22703308       0.28896873       0.19973833
O       18.85520441      20.45031300      17.84730652       0.03159622       0.07523687       0.04028203
C       14.13022555      13.25658653      22.38737330      -0.14651550       0.02120584       0.01041514
N       22.55065095      19.39297245      13.09088022      -0.23743071       0.36358578      -0.09517842
O       23.01218911      21.19545478      20.86857847      -0.53881456      -0.11486316       0.12245912
C       13.41954039      14.45457184      22.40674398      -0.10341788      -0.38676131       0.17822892
N       27.57919759      16.67337609      11.99508689      -0.01717846      -0.05728041      -0.02450983
O       17.96859681      20.41680025      24.59596304       0.30528693      -0.37910765      -0.33814696
C       13.91961558      15.61699810      21.66545501       0.36184111       0.14731044       0.17304194
N       16.43407237      20.48372672      19.38198259       0.03238430       0.26761374       0.04244623
C       12.18073487      15.45485326      19.87280624      -0.17488792      -0.44420265      -0.31291360
C       12.77603405      14.51954636      18.82110771      -0.07489376       0.20197743       0.09696008
C       15.05998622      16.35588792      21.89901242      -0.13934876      -0.41669006       0.06338825
C       16.10195162      16.05367145      22.93003410      -0.11250808       0.07812008       0.10588391
C       16.00153781      16.82577091      24.26486762       0.25853628       0.13612000      -0.02331423
C       16.97043017      16.19107081      25.26762342      -0.12845649       0.13321005      -0.14788806
C       14.58092945      16.77018625      24.82458709       0.22636165       0.14842908      -0.12165671
C       16.36740167      18.30102681      24.06935168      -0.57484243       0.05477465       0.31971935
C       18.40481874      19.49025783      23.94725184       0.17595519       1.00016505       0.33270670
C       19.84000499      19.42723678      23.45161491       0.04259583      -0.14210580       0.28455325
C       21.84769038      21.10712352      21.23944734       0.35605168       0.49071314      -0.94253305
C       20.66920467      21.31983430      20.28811528      -0.14485234       0.08754474      -0.01668045
C       20.34233066      23.20181226      18.75760184      -0.16933712       0.26903483      -0.07547754
C       21.01681102      23.97667652      17.61592543       0.05440799       0.28397902       0.20315145
C       20.50017745      25.41626117      17.47548765       0.14325196      -0.11944175       0.09664716
C       21.20316349      26.12074903      16.31705003      -0.15675805      -0.20357991       0.09162887
C       20.74949256      26.17485931      18.77818012      -0.21828708      -0.18076101      -0.04671807
C       21.87486564      22.45136241      15.98590991       0.92510292      -0.27287224       0.00225040
C       21.78434825      21.66847200      14.66725273       0.47788917      -0.30185029       0.33629570
C       21.23265070      20.26473206      14.93938122      -0.06550353       0.10646364      -0.24988878
C       21.21674560      19.45231105      13.64375290      -0.26292711      -0.26539517       0.29866178
C       23.25297044      18.24683099      13.13253083      -0.75143655      -1.14383542       0.35102262
C       24.60783657      18.30955748      12.65084554       1.08567851      -0.43492767      -0.20487589
C       25.75332367      18.13920830      12.31870270      -0.87754910       0.37805220       0.15951063
C       27.15234231      18.07516345      11.90547081       0.21634617       0.10349912      -0.12846513
C       27.38817536      16.07866555      13.30248186      -0.03230265      -0.05857992       0.12889932
C       28.91173333      16.39734680      11.50019980      -0.05356121       0.04550103      -0.01043377
C       27.21311604      18.55619894      10.44595863       0.04046420      -0.02831530       0.08521473
C       27.94564836      19.04803612      12.80502316      -0.01177969      -0.18242542      -0.04926778
C       23.11086274      20.68291791      12.76693591       0.19264378       0.38468460       0.05122129
C       23.16653161      21.57218199      14.01248100      -0.16656643       0.00683319      -0.01722992
C       19.50316485      23.17825700      15.84149527      -0.28693458      -0.03550498      -0.18783636
C       20.20938195      19.94286239      19.77684449      -0.27835745       0.22521603      -0.18104362
C       18.80996711      19.90550362      19.16236577      -0.02382076      -0.20404918       0.33067275
C       17.73849701      20.63169538      19.99709949       0.25650538      -0.07973395      -0.06800749
C       16.51060727      21.07571235      18.05792745       0.16845343      -0.09182303      -0.24260759
C       17.58349728      20.36251213      17.22794839      -0.17194506       0.03357636       0.02551400
C       22.49203155      20.53657741      23.53962265       0.19479636      -0.17303439      -0.13815157
C       22.22384948      19.15630447      24.13924961      -0.09722217       0.22750712       0.10373024
C       20.77559365      19.07237864      24.62098700       0.03550787      -0.14870609      -0.26795811
C       15.06691110      17.40200322      20.92458792      -0.39537696      -0.02716897      -0.45975579
C       13.90564550      17.22500101      20.13793719       0.45196092       0.44441928       0.10707344
C       13.61063289      18.10727503      19.10851511      -0.06319985      -0.04283145      -0.08015088
C       14.46715290      19.15647398      18.87757980      -0.06602586       0.02026345      -0.21053069
C       15.65578574      19.34815043      19.61772699      -0.05821710      -0.07352007       0.17030953
C       15.94981391      18.44591409      20.63570712       0.16026297       0.11245627      -0.03987078
F       20.95121000      22.33103682      13.75759579      -0.16591482       0.05590848      -0.16867143
H       11.70238770      15.95145901      25.41384103       0.02241737       0.01910393       0.09533801
H       10.32007759      16.86249950      24.79700468       0.01545430       0.05839882       0.03008669
H       10.22684765      15.09632590      24.93998968       0.02011436       0.00802666       0.05824276
H       12.05185752      16.62688637      23.02495714      -0.14260348      -0.23355028       0.06143570
H       10.54049433      17.62715163      21.66325848      -0.07030480      -0.00665951      -0.00785123
H        9.10747548      16.69330338      21.15110134      -0.01739593       0.12884135       0.03148042
H        9.20539945      17.33145851      22.80888164      -0.00207823       0.02679399      -0.04102466
H       12.02207922      11.48556196      24.32995254       0.07810746      -0.10596534      -0.00301539
H       14.17984192      11.22378164      23.08558983       0.00905058      -0.04792977       0.00154534
H       15.04469813      13.18858096      21.81582563       0.01835625       0.03089318      -0.01007155
H       11.56389487      14.88779597      20.57266336       0.12182685       0.27572791      -0.18823478
H       11.54962007      16.20533257      19.39177891      -0.00105388      -0.11128615       0.17476204
H       13.39623999      15.07933876      18.12451816       0.02338133      -0.03524365      -0.04890732
H       13.39021642      13.75960481      19.29901171       0.00842983      -0.03121642       0.00166546
H       11.98009590      14.02823074      18.26989091      -0.03028259      -0.07892006      -0.08420944
H       16.04339151      14.99034223      23.17110955       0.13089316       0.08156587      -0.01475123
H       17.08686509      16.25131067      22.50106995      -0.01809619      -0.15493931       0.05177341
H       16.64287323      15.18449492      25.51641384       0.01215994      -0.06446957       0.01625982
H       17.97170668      16.13742948      24.85033955       0.09240264      -0.03086290       0.01292509
H       17.00686762      16.77561131      26.18465842       0.02069153       0.00481001       0.08463460
H       14.24228455      15.73903454      24.88121674      -0.04479745      -0.04466520       0.02386237
H       14.54816648      17.20361960      25.82103868      -0.03161536       0.01071141       0.08585362
H       13.89856484      17.32364397      24.18573743      -0.09226907      -0.00971056      -0.01441841
H       16.27663960      18.85487279      25.00949293      -0.03448479      -0.15892497      -0.21675261
H       15.71440931      18.76625552      23.32538277       0.13177562      -0.04041485       0.12764915
H       19.91539047      18.66541267      22.66975088       0.00235029       0.16972952       0.15559108
H       19.93745017      21.45045053      23.56104255       0.10465990      -0.14870533      -0.21903094
H       19.86223324      21.81508825      20.83009948       0.27376488      -0.16165283      -0.21152109
H       22.00775997      22.01898136      18.83387447      -0.12765089       0.16640276      -0.02481341
H       22.09436399      24.00631988      17.81098401      -0.30496221       0.02272664      -0.07413138
H       19.42269549      25.39380922      17.29683915       0.10741409      -0.03180968       0.01919355
H       20.79795192      27.12059109      16.19070552       0.01898307       0.07828112      -0.03894088
H       22.26893837      26.20314130      16.52166305       0.06527635       0.02203452      -0.02018933
H       21.07954895      25.57817416      15.38357216       0.01709679       0.01620388      -0.08760356
H       20.44433723      27.21121547      18.66550585       0.02400807       0.09212532       0.03640561
H       20.17781332      25.73488106      19.59091292       0.02630917       0.05175864       0.03084446
H       21.80477473      26.14964291      19.04021555       0.09900125       0.04429340      -0.00293620
H       21.89377602      19.79011689      15.66653234      -0.07705549       0.03684403      -0.03672550
H       20.23409065      20.31034887      15.37313553       0.07332829       0.03560941       0.02308949
H       20.55386830      19.92787243      12.91465862       0.05653169      -0.10606073       0.07693521
H       20.88249714      18.43144844      13.83462213       0.04103355       0.24366188      -0.09272790
H       28.13952713      16.40156642      14.03983108      -0.06947605      -0.01801950      -0.04244958
H       26.39622409      16.32385893      13.67869139       0.09059946      -0.08857734       0.02590107
H       27.45689611      14.99551336      13.19963702       0.01056238       0.05149259       0.07426289
H       29.70754214      16.85058169      12.11067587      -0.01953630      -0.02867552      -0.05699033
H       29.05265459      15.31701949      11.51524061       0.06173757       0.06552138      -0.03216268
H       29.01030387      16.73649289      10.47336341       0.09285298      -0.01367984      -0.00393571
H       26.60770295      19.45174642      10.33266178       0.05589765       0.02300185      -0.01561448
H       28.23414453      18.79417237      10.16227114       0.04829008      -0.00234180      -0.04240951
H       26.82226516      17.78433077       9.78955254      -0.01501638      -0.00755922      -0.02332307
H       27.58940857      20.06261689      12.64968643       0.01209302       0.04971784       0.02375829
H       27.81671534      18.79436789      13.85452045       0.02694919       0.02466290      -0.00539107
H       29.00247779      19.00685863      12.55479882       0.05626615       0.02650461      -0.00792252
H       24.11219340      20.54705442      12.35794636      -0.22463877       0.06512577       0.01327025
H       22.47384622      21.15809192      12.01384129       0.15650942      -0.07935413       0.02142525
H       23.49843704      22.57310933      13.73473966      -0.00646330      -0.03704168       0.08152643
H       23.86216676      21.17097516      14.74884946      -0.06854309       0.03439518      -0.11062508
H       18.79736391      23.26940829      16.66520186       0.02572283      -0.01023421      -0.06031208
H       19.35831290      24.00470142      15.14480029      -0.06350704      -0.08686799       0.04546958
H       19.30531065      22.24658383      15.32497122      -0.00388970       0.13523346       0.05346666
H       20.92439200      19.59795172      19.02661564      -0.02265680      -0.04478748       0.13795488
H       20.22180614      19.24293059      20.60995892       0.01432746      -0.05126293      -0.02738187
H       18.50811182      18.84487854      19.07293018       0.05334399       0.23106381       0.05889128
H       17.95855462      21.70314558      19.99900122       0.04845833      -0.26247038       0.07111943
H       17.74175473      20.27562148      21.02450593      -0.01866467       0.06791202      -0.07169467
H       15.55728582      21.04074164      17.54017084       0.07080533       0.05222063       0.03954568
H       16.80026409      22.12316403      18.18836638      -0.06617602      -0.12401975      -0.08770647
H       17.68667286      20.82188767      16.24514675      -0.04751755      -0.06864416       0.03103513
H       17.30723544      19.30254069      17.11014253      -0.00218185       0.17416294      -0.04952342
H       23.47621024      20.59057043      23.07478139      -0.17467357       0.04003822       0.11949074
H       22.41291442      21.30828455      24.31278304       0.04019861      -0.05458183      -0.06147907
H       22.90621201      18.98394028      24.97016655       0.02978303      -0.05025898      -0.04103747
H       22.40384996      18.39299966      23.38022735       0.05638187       0.02201834       0.02889350
H       20.60605932      19.78389916      25.43292123      -0.03907128      -0.06335422      -0.04472840
H       20.54933110      18.07094978      24.98588043      -0.02575828       0.02654828       0.05027032
H       12.72325312      17.99203144      18.50474501      -0.02757256       0.02584050      -0.02999530
H       14.19673785      19.85357870      18.10229247       0.01444927       0.01393681       0.01292772
H       16.85313220      18.52792768      21.21722562      -0.00297018       0.04865422      -0.04225366
