151
Properties=species:S:1:pos:R:3:MACE_forces:R:3 energy:=T -221.333444855417=T gnorm:=T 0.006607549890=T xtb:=T 6.7.1=T (edcfbbe)=T MACE_energy=-90873.41187462775 pbc="F F F"
C       11.02034341      15.80199780      24.79587967      -0.06048406       0.07096162      -0.39789894
N       11.83816001      13.33069163      23.70752958      -0.26590135       0.09813847       0.15899149
O       10.27257356      15.56448309      22.47083422       0.02566232      -0.11078465       0.15283180
C       11.41071835      15.67490253      23.32299322       0.03720878       0.20329515       0.15679267
N       13.13593132      16.23164108      20.61223498      -0.10449724       0.05673988       0.28645931
O       17.65055301      18.50186134      23.57787143      -0.10722015      -0.61827672      -0.38959174
C        9.56339558      16.77116224      22.28519990       0.14963145      -0.13366223       0.03455297
N       20.03945028      20.80667130      23.00294245      -0.34669685       0.21557707       0.12448374
O       22.80071301      17.13530944      13.25575744       0.37652150       0.64800101      -0.12959613
C       12.25546799      14.43273476      23.10151928       0.14890175       0.27152130      -0.27232857
N       21.39076104      20.93278351      22.66570780      -0.08183981      -0.20715184       0.92364690
O       22.91592768      22.22520381      16.79875666      -0.38202728      -0.11341938      -0.34557238
C       12.53825920      12.21722858      23.58399358       0.09385169      -0.21184306       0.00451576
N       21.04440092      22.17153530      19.31662259       0.60822869      -0.45432562       0.23058602
O       19.18737113      23.44854842      19.16752429       0.02336462       0.11031678      -0.05973879
C       13.71709074      12.13981868      22.85971901       0.01456992       0.02874108      -0.01071159
N       20.88593193      23.13099575      16.45388220      -0.21769759       0.34215999       0.19952806
O       18.88532636      20.44717429      17.93340374       0.01636364       0.06484412       0.02127224
C       14.15665188      13.28174171      22.21630035      -0.16134914       0.04122270       0.03958521
N       22.68012559      19.39301552      13.09956219      -0.20524102       0.42127228       0.00011370
O       22.92655550      21.27612080      21.04960477      -0.66775397      -0.14098431       0.15167999
C       13.41821554      14.46065330      22.31686125      -0.05278843      -0.44540186       0.14848569
N       27.65477227      16.64978491      11.89354047      -0.03005698      -0.04537034       0.00051195
O       17.84453709      20.36416133      24.81937279       0.32104581      -0.36053693      -0.41632695
C       13.88424176      15.66033647      21.61712014       0.31655986       0.17116523       0.12115240
N       16.38933641      20.53306345      19.34402778       0.03989086       0.23676750       0.07191192
C       12.05378897      15.58668933      19.91132600      -0.19911732      -0.44670049      -0.29462422
C       12.58087174      14.58887979      18.87954649      -0.06311737       0.23808823       0.11307113
C       15.04537191      16.37462856      21.81814744      -0.12233117      -0.34592528       0.04278007
C       16.12967349      16.05971010      22.80039797      -0.15215025       0.07584565       0.13689073
C       16.03898558      16.78435702      24.16328447       0.26621646       0.13779458      -0.03327118
C       17.09720679      16.19831627      25.10358136      -0.11295601       0.13439248      -0.16348548
C       14.65639436      16.60680934      24.78486935       0.19236728       0.16612926      -0.12862830
C       16.29169659      18.28688566      23.98771909      -0.59267168      -0.02580681       0.35143525
C       18.30887945      19.52386347      24.07830591       0.19675284       0.96018903       0.47473451
C       19.76371760      19.51789305      23.63531971       0.05535532      -0.13147776       0.33483091
C       21.75368516      21.17829751      21.39670261       0.45847223       0.49462838      -0.93128804
C       20.59500937      21.35006229      20.41286897      -0.12930551       0.03126542      -0.02686306
C       20.32361531      23.17103874      18.80328695      -0.18826892       0.26842890      -0.08140971
C       21.04278076      23.92238484      17.67559162       0.04536021       0.23002112       0.16109089
C       20.54854711      25.36758119      17.52041740       0.16144547      -0.10746300       0.11982867
C       21.27780626      26.06455272      16.37483179      -0.15998224      -0.20108675       0.10663446
C       20.78484647      26.12751429      18.82602521      -0.25530747      -0.16209683      -0.07300887
C       21.91209246      22.35539595      16.09289362       0.91347230      -0.26736380       0.07686760
C       21.87588517      21.60395606      14.75461463       0.45528679      -0.33784194       0.33262497
C       21.30048040      20.19675756      14.94490523      -0.04251552       0.13647092      -0.26318178
C       21.32995953      19.44444154      13.61338674      -0.29721110      -0.28123866       0.25478775
C       23.32285974      18.21806049      12.98301317      -0.75151181      -1.12424741       0.24523801
C       24.67556573      18.27220660      12.48995703       1.06398343      -0.36666421      -0.25568160
C       25.80817614      18.10868271      12.11305604      -0.85410272       0.33916644       0.23683221
C       27.17631935      18.00955897      11.60897060       0.18620221       0.07564736      -0.22840923
C       27.58284701      16.28286553      13.29396720      -0.00959816      -0.03146548       0.07796131
C       28.95626601      16.31857340      11.35121776      -0.07272626       0.03723040      -0.00614384
C       27.09346045      18.23829682      10.08925157       0.07153699      -0.03592115       0.12671160
C       28.01524867      19.13271237      12.25420525      -0.04077281      -0.19182340      -0.01054736
C       23.27952370      20.68711071      12.87674141       0.18537476       0.36222238       0.06126927
C       23.28979343      21.50444522      14.17139834      -0.16556900       0.00442626      -0.03057255
C       19.56946255      23.14944673      15.85219413      -0.27226500      -0.04155109      -0.21753927
C       20.12784996      19.95887342      19.95061202      -0.29242665       0.29425587      -0.21190953
C       18.76740263      19.93005552      19.25464266      -0.04630689      -0.18856204       0.34658975
C       17.66541083      20.69255378      20.01182729       0.23694337      -0.05514786      -0.07480414
C       16.52097506      21.06550721      18.00016166       0.20544660      -0.06711662      -0.24625225
C       17.64705720      20.34322663      17.25107321      -0.14202505       0.01478461       0.03053871
C       22.35767365      20.74630429      23.73604064       0.21833613      -0.17954414      -0.09717453
C       22.13285362      19.39025606      24.40481049      -0.13967305       0.24169719       0.08218227
C       20.67521166      19.26780354      24.84936366       0.04769576      -0.13387824      -0.30528321
C       15.02255871      17.44966211      20.87618127      -0.40283103      -0.04989064      -0.41396249
C       13.82421036      17.31661237      20.13923967       0.47904375       0.41233887       0.12753489
C       13.50464513      18.23038045      19.14412775      -0.06406461      -0.00647706      -0.10618212
C       14.37576367      19.26477096      18.90168484      -0.07899559       0.00398206      -0.19331448
C       15.59900794      19.41001405      19.59402089      -0.04837620      -0.09228068       0.17606789
C       15.91710181      18.48039923      20.57802846       0.09398683       0.10712983      -0.08507810
F       21.09797078      22.30320478      13.82427197      -0.14728507       0.07603973      -0.17424283
H       11.91529548      15.80024921      25.40968260       0.02570369       0.01506109       0.09906002
H       10.48070110      16.72923192      24.96839747       0.01228094       0.04231982       0.03947188
H       10.39504106      14.95926601      25.07025551       0.01120437      -0.02545078       0.05273263
H       11.99050962      16.55951640      23.01399993      -0.13013803      -0.24280221       0.06448395
H       10.23353610      17.56386817      21.93225103      -0.07753353      -0.01075441       0.00693678
H        8.81148099      16.56054598      21.52798598       0.00048551       0.12325094       0.04294126
H        9.07001851      17.09737796      23.20415044       0.00171721       0.02861025      -0.06422667
H       12.13231154      11.35633876      24.09746967       0.08049568      -0.09899333      -0.01286928
H       14.26770785      11.21511193      22.79626686       0.00776831      -0.04318621       0.00062174
H       15.05896405      13.27262550      21.62270500       0.02469325       0.00929493      -0.01832812
H       11.41169100      15.07465412      20.63119766       0.12908178       0.26119420      -0.21054704
H       11.46535880      16.36160138      19.41619765       0.00131845      -0.10973432       0.17019811
H       13.27502158      15.08063932      18.20208686       0.01907818      -0.02574402      -0.06259056
H       13.09905111      13.77197566      19.37615527       0.00975906      -0.03171874      -0.00122702
H       11.75619530      14.18067949      18.30462489      -0.05064417      -0.09973091      -0.08645691
H       16.11914101      14.98734351      23.00286732       0.11886646       0.06427899      -0.01566194
H       17.09117563      16.31268649      22.35001031       0.02311779      -0.15570505       0.03432570
H       16.85405492      15.16598214      25.34075190       0.00252875      -0.07628670       0.02680763
H       18.08022344      16.22434216      24.64014047       0.05224074      -0.02300590       0.02573706
H       17.13495433      16.76482062      26.03179633       0.03096966       0.00076369       0.09192100
H       14.41624278      15.54985710      24.85930301      -0.06232263      -0.06592424       0.01563314
H       14.62902932      17.04181726      25.78064496      -0.02509426       0.00885236       0.09372867
H       13.89964500      17.09163137      24.17565525      -0.09700110       0.00179299      -0.01168572
H       16.12463282      18.82677312      24.92509822       0.00497574      -0.15992911      -0.21399764
H       15.63541002      18.70180500      23.21874723       0.11869232      -0.01466212       0.15113961
H       19.90518361      18.72825527      22.89115131      -0.00326141       0.18865617       0.14947860
H       19.76678929      21.55068942      23.64941768       0.14761887      -0.18462906      -0.19569868
H       19.77980202      21.87441853      20.91366592       0.26178574      -0.16423732      -0.17292571
H       21.98046769      21.99003278      18.97497344      -0.11411173       0.15350247      -0.04031282
H       22.11541958      23.93355928      17.89543685      -0.29230837       0.04295436      -0.06456886
H       19.47410759      25.35610938      17.32733725       0.09046837      -0.02708654       0.00555586
H       20.87783657      27.06433826      16.23647698       0.01409251       0.09654864      -0.04475615
H       22.33845230      26.14656377      16.60318718       0.07682801       0.01492791      -0.02428167
H       21.17248283      25.51896994      15.44212340       0.02487933       0.00109776      -0.11885645
H       20.47572747      27.16287649      18.70708801       0.03471255       0.06838655       0.05061076
H       20.20698185      25.68766908      19.63449822       0.01775213       0.05532215       0.02897641
H       21.83674138      26.10766103      19.09902047       0.12022930       0.03696954      -0.00757298
H       21.92283898      19.68478403      15.67957990      -0.06021371       0.03594713      -0.02489169
H       20.28356837      20.23522942      15.33344782       0.05063542       0.03696131       0.02884735
H       20.69589395      19.96151998      12.88599960       0.04682154      -0.11398315       0.07512652
H       20.97776298      18.41974160      13.74178437       0.05527231       0.25064431      -0.07546832
H       28.35468848      16.77042379      13.90904276      -0.06343679      -0.03344118      -0.02261983
H       26.60132342      16.53651899      13.68855768       0.07753282      -0.07363189       0.06045863
H       27.71805699      15.20464264      13.37320607       0.00145694       0.04478193       0.05936037
H       29.78327449      16.84186973      11.85345980      -0.00678469      -0.01460401      -0.05403002
H       29.10635618      15.24770097      11.48411930       0.07082287       0.05282587      -0.02893797
H       28.98928950      16.53243082      10.28785013       0.08460086      -0.01786436      -0.01662970
H       26.50577651      19.12939908       9.88915609       0.02441996       0.03745527      -0.02546041
H       28.08277906      18.37819267       9.66619204       0.06963173       0.01650891      -0.05420895
H       26.61262494      17.38787506       9.61707306      -0.01592704      -0.03989011      -0.03287324
H       27.60737643      20.10025323      11.97561202       0.01550351       0.05948364       0.01472864
H       28.00136495      19.05115889      13.33827350       0.02353223       0.02751624      -0.00339741
H       29.04281502      19.07353855      11.90463929       0.04677123       0.02354456      -0.01069791
H       24.29744132      20.55374661      12.50992010      -0.22726853       0.05548902       0.01123740
H       22.69033358      21.21887057      12.12150112       0.16220229      -0.07642563       0.03056803
H       23.66716201      22.50725161      13.96967704      -0.02091690      -0.03729046       0.07080167
H       23.92941458      21.04073217      14.92197920      -0.05566605       0.05674775      -0.12159308
H       18.83693314      23.24870330      16.65092224       0.01233420      -0.01708180      -0.05267256
H       19.46468324      23.98338586      15.15697456      -0.05899821      -0.09218875       0.04695503
H       19.37394462      22.22526386      15.32031889       0.00070140       0.13863082       0.05805763
H       20.87700100      19.54932650      19.27192438       0.00036814      -0.04951221       0.09535066
H       20.05656448      19.31475811      20.82352023       0.03364272      -0.08224445      -0.01257354
H       18.45586364      18.87217818      19.16977879       0.05138544       0.22856052       0.06646136
H       17.89631444      21.76128106      19.98124738       0.05386761      -0.26381896       0.08705503
H       17.61094368      20.37532933      21.05086097      -0.00451119       0.05472003      -0.06951875
H       15.59707628      20.97237570      17.43718450       0.06197788       0.05714117       0.04235695
H       16.77436673      22.12616003      18.09326301      -0.05074428      -0.12319594      -0.08890384
H       17.80113578      20.78489737      16.26744402      -0.05531658      -0.06922481       0.01078250
H       17.38390211      19.27968929      17.13815050      -0.00952928       0.15922504      -0.04800089
H       23.35003386      20.81700464      23.29109969      -0.18256546       0.03928469       0.11517404
H       22.22854310      21.55320440      24.46529781       0.04174549      -0.05417720      -0.05549957
H       22.79695312      19.29677180      25.26237216       0.03806893      -0.05384242      -0.03275053
H       22.36816672      18.59440664      23.69652824       0.06254180       0.02311610       0.02107316
H       20.44570549      20.01144787      25.61594789      -0.02947742      -0.07591504      -0.04305764
H       20.48206920      18.27708683      25.25897513      -0.03576315       0.01862755       0.05891229
H       12.59031170      18.15312927      18.57541297      -0.02895496       0.01955229      -0.01338604
H       14.09372443      19.99348662      18.15952197       0.00515768       0.02334862       0.01561588
H       16.84507213      18.52726882      21.12266494       0.02608846       0.06444492      -0.03452923
