151
Properties=species:S:1:pos:R:3:MACE_forces:R:3 energy:=T -221.333235327647=T gnorm:=T 0.008753450369=T xtb:=T 6.7.1=T (edcfbbe)=T MACE_energy=-90873.29602062043 pbc="F F F"
C       10.98287376      15.81661651      25.18755243      -0.10923462       0.09705273      -0.30563714
N       11.71213988      13.40166322      24.01636249      -0.21290211       0.01703745       0.18494062
O       10.06211436      15.59382816      22.91440548       0.04941855      -0.06082685       0.16591778
C       11.25383891      15.73045314      23.68483304       0.09190344       0.16529239       0.09226807
N       12.91687815      16.28341925      20.76456895      -0.08617754       0.07118288       0.22998185
O       17.46412844      18.55064117      23.45057004      -0.10184582      -0.65649679      -0.43511983
C        9.15080011      16.66563297      23.03259269       0.13120914      -0.15914855       0.02029694
N       19.86480272      20.86845008      22.95396205      -0.36312936       0.15374341       0.10879387
O       23.33757901      17.23480766      13.31531616       0.31285372       0.73298037      -0.16728403
C       12.09101531      14.50206483      23.38126653       0.13206559       0.25328058      -0.31308281
N       21.22660618      21.01287074      22.67318748      -0.06974786      -0.13605608       0.91768913
O       23.06341750      22.37674434      16.78237084      -0.35857635      -0.13985689      -0.34951822
C       12.38060288      12.27827552      23.83326498       0.08900697      -0.20421975      -0.01317206
N       21.00264277      22.11635892      19.28782270       0.63087145      -0.44200217       0.19343680
O       19.10325338      23.31400470      19.03867052       0.07613855       0.10390016      -0.05457902
C       13.48686255      12.18391967      23.00351150      -0.03101954       0.07360575       0.02185715
N       20.95798029      23.09461314      16.43615157      -0.23936092       0.32037379       0.18978551
O       19.08165639      20.08717198      17.77337793       0.05017670       0.07390581       0.07850923
C       13.88524924      13.32412843      22.33232510      -0.12398170       0.00361969       0.01433653
N       23.03692952      19.47552011      13.13310211      -0.25802789       0.40261088       0.01438168
O       22.83153258      21.31516261      21.11732834      -0.56068646      -0.16949126       0.12092480
C       13.18331861      14.51945673      22.50214874      -0.07623199      -0.42144507       0.16567123
N       27.98312344      16.91235832      11.40040724      -0.02112516      -0.05696981      -0.01170151
O       17.64825401      20.38379827      24.73539743       0.31920693      -0.35096656      -0.42721722
C       13.65608210      15.69797713      21.76598981       0.34060311       0.15643718       0.13867742
N       16.50379408      20.11703907      19.01585602       0.09452844       0.18351328       0.01048400
C       11.69328258      15.77314375      20.19977726      -0.27865413      -0.39652148      -0.22436110
C       11.96884702      14.79002424      19.06282912      -0.06523620       0.08231518       0.04325886
C       14.88490788      16.31608963      21.87453379      -0.14796084      -0.28910561       0.10609550
C       15.97498136      15.99538312      22.84773925      -0.12543925       0.08146287       0.10093552
C       15.93315425      16.80401463      24.16505788       0.23066655       0.14031936      -0.04823020
C       17.05568804      16.31664195      25.08562187      -0.12731321       0.13122283      -0.16355483
C       14.58799428      16.62257172      24.86457292       0.18444080       0.13240695      -0.15703837
C       16.11755181      18.30053273      23.87862299      -0.57073444      -0.03724087       0.38447520
C       18.11625605      19.56076606      23.97622081       0.22953753       1.01856877       0.52426237
C       19.57639568      19.56693732      23.55283103       0.03865384      -0.16854370       0.32581109
C       21.64720430      21.19922010      21.41275309       0.34635130       0.43447959      -0.91282915
C       20.54167538      21.26889921      20.35816120      -0.11787532       0.07706299      -0.02533932
C       20.27169270      23.09142775      18.74425955      -0.24717369       0.27809661      -0.09682862
C       21.02923727      23.87749624      17.66781879       0.04685187       0.27626463       0.21679897
C       20.51430060      25.31476225      17.51110286       0.11184562      -0.12154884       0.07201601
C       21.26847284      26.03312920      16.39527797      -0.15981386      -0.19994737       0.09572780
C       20.70748417      26.05182983      18.83579522      -0.23390114      -0.17079678      -0.08217117
C       22.05278438      22.41808746      16.07632181       0.90760126      -0.22414192       0.07829539
C       22.07600956      21.64987768      14.74849016       0.47511193      -0.28122714       0.32784760
C       21.60248620      20.20944073      14.96810180      -0.06982889       0.10928809      -0.26242359
C       21.69005226      19.43033775      13.65532792      -0.28862108      -0.30345997       0.25841560
C       23.76316663      18.35243178      13.01151618      -0.68466040      -1.20893219       0.31259071
C       25.08698054      18.49813791      12.46562830       1.06658532      -0.45693645      -0.39143093
C       26.19087519      18.34494250      12.00679270      -0.82492656       0.39866123       0.30688853
C       27.54388624      18.31299688      11.46105680       0.22813041       0.09623179      -0.19150957
C       27.75536499      16.15315946      12.61222955      -0.06093612      -0.06178842       0.16320848
C       29.33940957      16.71947815      10.93021272      -0.01506840      -0.02018537      -0.02323986
C       27.46991213      18.88936124      10.03499437       0.04940582      -0.02334961       0.07354928
C       28.41982278      19.22399534      12.34873742      -0.02581236      -0.21978401      -0.04194266
C       23.53454735      20.80709461      12.88178240       0.16397325       0.36693379       0.05927109
C       23.49212711      21.64350715      14.16318164      -0.16605154       0.00000798      -0.01546167
C       19.65603785      23.02719637      15.80629086      -0.31802193      -0.06760578      -0.24278725
C       20.23596303      19.83943302      19.87973991      -0.28420239       0.19513881      -0.20465298
C       18.91766985      19.66225829      19.12330622      -0.05690796      -0.10943453       0.33643852
C       17.71997894      20.40303271      19.74384937       0.25069550      -0.04703625      -0.04942822
C       16.67143772      20.48898691      17.62681575       0.26449731      -0.04295647      -0.20668822
C       17.91159397      19.80578395      17.03061172      -0.24115299       0.01449900      -0.04089886
C       22.14981598      20.83040545      23.78124140       0.21409259      -0.19404473      -0.08048694
C       21.92539556      19.45213986      24.40299720      -0.14365144       0.22719173       0.09151985
C       20.45433138      19.29410850      24.78606060       0.08503221      -0.12515334      -0.26567471
C       14.91847041      17.33058429      20.86949373      -0.47269209      -0.06296184      -0.40523760
C       13.67821333      17.26827275      20.19449448       0.51871526       0.37271056       0.09174826
C       13.39758660      18.13888097      19.14837239      -0.09561690      -0.01565343      -0.10838555
C       14.35504513      19.05370740      18.78539018      -0.08754499      -0.03347505      -0.14695215
C       15.62198046      19.11595695      19.41078837      -0.07193695      -0.07674252       0.16494532
C       15.89451519      18.24204425      20.45628825       0.15887305       0.14035760      -0.08937874
F       21.24852272      22.27515574      13.80745270      -0.14408047       0.04238661      -0.16207299
H       11.92370696      15.74683496      25.72881041      -0.05125404       0.03211681       0.04056074
H       10.50093038      16.75829008      25.44038935       0.03075257       0.00725005       0.03622824
H       10.34432019      14.98509680      25.47705600       0.06894029       0.05397448       0.03533016
H       11.78708811      16.63545424      23.34628397      -0.12206946      -0.26191104       0.05399127
H        9.65203910      17.62710788      22.88322659      -0.04537844       0.00801524      -0.02147735
H        8.41135119      16.50673930      22.25246866      -0.04039919       0.13708617       0.03041678
H        8.65171582      16.66623108      24.00443286       0.01230523       0.04298286      -0.04063085
H       12.01140100      11.42304125      24.38366524       0.06984296      -0.08865443      -0.03254343
H       14.01108438      11.25015072      22.88851565       0.04288209      -0.06251315      -0.02079057
H       14.73133348      13.30418760      21.66009031       0.01473878       0.01347964       0.00413047
H       11.11481283      15.28186247      20.98566274       0.14278066       0.25785794      -0.23178471
H       11.11259920      16.62094654      19.82660865       0.01335898      -0.13147319       0.17926704
H       12.49730020      15.28635222      18.24786269      -0.01714000      -0.09668953       0.03630901
H       12.57857786      13.95923150      19.42413569      -0.07786456       0.07864233      -0.06132748
H       11.02624915      14.39311395      18.68394368       0.09442530      -0.01639916      -0.02965116
H       15.92385056      14.93713050      23.11126141       0.12481216       0.06091091      -0.02056427
H       16.93644154      16.18289986      22.36589207       0.01868477      -0.14569660       0.04973289
H       16.88010237      15.28387394      25.37334743       0.00040873      -0.08408252       0.04364184
H       18.01809045      16.37704179      24.58400956       0.05117169      -0.03521748       0.01750048
H       17.09603293      16.92432760      25.98738092       0.03482460       0.00626163       0.09278325
H       14.38714842      15.56494965      25.01574576      -0.05737409      -0.05057867       0.01650627
H       14.58804410      17.11917394      25.83133398      -0.00779287       0.02571889       0.09006999
H       13.79109178      17.04337701      24.25982747      -0.11030418      -0.00271992       0.00822649
H       15.92676043      18.89785803      24.77521351       0.00614017      -0.16965814      -0.20052658
H       15.44764047      18.62760391      23.08087727       0.11208148       0.00608956       0.16837365
H       19.73314133      18.79350489      22.79471909      -0.01580668       0.18254373       0.17317995
H       19.56527267      21.59667815      23.60492186       0.14616416      -0.14329222      -0.19685190
H       19.65355408      21.72614025      20.79726197       0.31105302      -0.14319275      -0.18033342
H       21.96747042      21.98937966      19.00613602      -0.14498433       0.13347604      -0.00740861
H       22.08807895      23.91532017      17.94652457      -0.31453539       0.01646452      -0.10480198
H       19.44547558      25.29148542      17.28387374       0.12000836      -0.03707574       0.02485292
H       20.89151007      27.04586808      16.28538519       0.01769235       0.07732277      -0.04339123
H       22.32869034      26.08297999      16.63533331       0.07656710       0.02729500      -0.02587310
H       21.15957396      25.51912840      15.44424752       0.02434125       0.01268870      -0.09166895
H       20.38270499      27.08356781      18.73926320       0.01520913       0.09658886       0.03462613
H       20.12431825      25.58218134      19.62323988      -0.00091484       0.04297167       0.04334321
H       21.75434312      26.04188659      19.12721298       0.12673414       0.05099525       0.01111915
H       22.25286986      19.75914924      15.71941224      -0.05873811       0.04339119      -0.04943963
H       20.58249098      20.18519145      15.35074098       0.07162310       0.03854762       0.03012596
H       21.01254486      19.87628695      12.91886638       0.06807674      -0.11034710       0.08981242
H       21.42165538      18.38348393      13.81041203       0.04649110       0.26737935      -0.08831995
H       28.40348067      16.46064440      13.44831227      -0.03944397      -0.03706846      -0.05833592
H       26.71631129      16.25007691      12.92118357       0.10168593      -0.08445401       0.02973005
H       27.95390459      15.10332162      12.39865746      -0.00046821       0.03137322       0.06099199
H       29.50356818      17.28086792      10.01302107       0.08596402      -0.05282371       0.04750422
H       30.10202406      17.00370952      11.67417997      -0.06680482      -0.00129928      -0.12758055
H       29.46566600      15.65740916      10.70836457       0.07576400       0.15098084      -0.00322007
H       26.84683933      19.77962780      10.03024981       0.05343086       0.04364232      -0.02713702
H       28.45922196      19.16103825       9.67724423       0.03367194       0.00503029      -0.03496019
H       27.03568488      18.14990105       9.36790433      -0.01967990       0.01567537       0.00384537
H       28.01151617      20.23006820      12.35370913       0.02091468       0.06846406       0.02370769
H       28.44172553      18.85402347      13.37148253       0.01365178       0.03705914       0.00277207
H       29.43432696      19.25739753      11.96162310       0.05262694       0.03231598      -0.02076515
H       24.55702729      20.74306821      12.50900639      -0.22782733       0.04637221       0.00911293
H       22.90194470      21.27952076      12.12302425       0.16088065      -0.05344969       0.01639982
H       23.79559516      22.66831614      13.94624060      -0.01979509      -0.05167173       0.06498202
H       24.16653051      21.23756456      14.91734757      -0.07241590       0.05655507      -0.12469291
H       18.90076615      23.13496710      16.58353496       0.05605945      -0.01565821      -0.08165982
H       19.53408760      23.82140479      15.06822488      -0.06404871      -0.10102630       0.05744126
H       19.50722303      22.06864079      15.31877308      -0.00247259       0.16191042       0.06414095
H       21.04839841      19.51451754      19.22637190      -0.02582928      -0.05221123       0.14429774
H       20.21046060      19.18341572      20.74822646       0.01418022      -0.04358992      -0.02649243
H       18.68332393      18.58213759      19.10416218       0.02735695       0.20963739       0.03980369
H       17.89375940      21.48084464      19.64620729       0.08133554      -0.25919692       0.12862280
H       17.60818662      20.15577407      20.79789135       0.00810498       0.06677785      -0.08079116
H       15.80330040      20.21000369      17.03628071       0.04842908       0.07884539       0.03511451
H       16.80848569      21.57546373      17.58101892      -0.05038160      -0.12718238      -0.08765840
H       18.09586900      20.16555916      16.01742711      -0.06085866      -0.06285510       0.04531539
H       17.75049844      18.71613078      17.00575014      -0.01345084       0.16018675      -0.04894234
H       23.15862828      20.93457870      23.38259946      -0.18478672       0.03561036       0.11167557
H       21.96673731      21.61599135      24.52132799       0.04480281      -0.04914834      -0.05684937
H       22.55592599      19.34435936      25.28346591       0.04816511      -0.05775688      -0.02305654
H       22.20274789      18.68254497      23.68135516       0.06955168       0.01594939       0.01853647
H       20.18740009      20.01363282      25.56290925      -0.03088223      -0.07051449      -0.03333216
H       20.26009325      18.29074509      25.16436906      -0.02969377       0.02384973       0.04518385
H       12.44825798      18.11645182      18.63455511      -0.02668203       0.02220302      -0.01871626
H       14.11706331      19.76138359      18.00716587      -0.00099543       0.01919551       0.01128921
H       16.84955718      18.24927859      20.95847689      -0.00879542       0.02963293      -0.05475588
