151
Properties=species:S:1:pos:R:3:MACE_forces:R:3 energy:=T -221.336619485292=T gnorm:=T 0.005658324913=T xtb:=T 6.7.1=T (edcfbbe)=T MACE_energy=-90873.49694292755 pbc="F F F"
C       27.94685166      -1.75361847      18.45141672      -0.28222096      -0.26332646      -0.12184447
N       26.31534770      -0.05414428      16.91891423       0.28871441      -0.14438299      -0.05385253
O       26.29133165      -3.05649586      17.19957636       0.05904852       0.21519430      -0.03775941
C       26.47074787      -2.07990242      18.22494126       0.10854705      -0.07581436       0.18756045
N       23.23317947      -2.62371473      18.87269379       0.30465527      -0.04005909      -0.03713893
O       24.08825172      -0.95148682      24.28602221      -0.22140656       0.59844501      -0.52003275
C       26.49438468      -4.38474165      17.62710422      -0.02083557       0.12576253       0.07748790
N       22.75315188      -2.26388144      27.28993819       0.41977836      -0.26561917      -0.00195659
O       19.35770314      -7.98969904      22.88834571      -0.88656861       0.14174950       0.12548201
C       25.71127870      -0.83612523      17.80104196      -0.30682709      -0.22876445       0.21810156
N       22.01411021      -1.77908148      28.37400055       0.98648566       0.46612529       0.01142250
O       16.60806673      -5.13651601      27.13530229       0.14432814      -0.42634195       0.05901550
C       25.71657013       1.05251654      16.51670013      -0.10142699       0.23014037      -0.08441745
N       18.97373196      -3.79344163      28.29233893       0.14751297       0.48845932      -0.61157064
O       19.87876418      -5.20805121      29.79774491      -0.24011898       0.09782795      -0.03356898
C       24.48009562       1.46214520      16.99083616       0.01517137      -0.03495986       0.02683920
N       17.25877959      -6.38841022      28.88180169      -0.20707134       0.05126120       0.48368065
O       19.99268124      -5.47870218      25.96485807       0.05050026       0.15658060      -0.06647697
C       23.83909026       0.65086987      17.90936547       0.13187657      -0.08546222      -0.06858984
N       17.44090910      -8.44036781      24.03063434      -0.15674231      -0.26189392       0.13980628
O       20.10352701      -1.76485199      29.55360446       0.36963860      -0.05998976      -0.48598071
C       24.44505013      -0.53405935      18.32319450       0.07897810       0.27134029      -0.23829224
N       16.93146908      -4.95462392      19.35848488      -0.17979669      -0.01447472      -0.03252144
O       24.87881698      -2.65080540      25.51874566      -0.41272439       0.45378369      -0.02489789
C       23.73629926      -1.40384295      19.27036683       0.06257258       0.29184359       0.38173521
N       21.12562247      -4.28912918      23.70030295       0.02508848      -0.02060266      -0.12673573
C       23.15220555      -3.09432163      17.51191994      -0.19178060       0.02883160      -0.46564183
C       21.87283348      -2.60962387      16.83310781       0.13790263      -0.14128988       0.11196576
C       23.43945140      -1.17155804      20.59408616       0.08509641       0.16790184      -0.31539652
C       23.76187212       0.03282589      21.42023571       0.17368784      -0.10200334      -0.00572362
C       25.06344304      -0.04206987      22.25154065      -0.10125501      -0.01459095       0.29159830
C       25.22646022       1.26902759      23.02558408      -0.07515221      -0.20909732      -0.06535230
C       26.26973211      -0.24477501      21.33711259      -0.20596152      -0.09490230       0.17825547
C       25.02958595      -1.21788449      23.23666486       0.46067691      -0.19366383      -0.30454001
C       24.13660055      -1.70532117      25.36400298       0.19934949      -0.93550112       0.71171657
C       23.20527699      -1.17017271      26.43667014       0.26645620       0.11798236      -0.03127062
C       20.76861017      -2.21050605      28.62546085      -1.08403461      -0.28543547       0.48773330
C       20.24228236      -3.35636452      27.75170614       0.00581117      -0.21699050       0.21790222
C       18.89639753      -4.69622916      29.27249990       0.02454711      -0.24837218       0.30131883
C       17.46435156      -5.13116689      29.61746838       0.17172267       0.28735869       0.09378840
C       17.24520447      -5.19270946      31.13125610      -0.04430032       0.02845698      -0.11115024
C       15.84883094      -5.70629674      31.47520963       0.28393555      -0.03738795      -0.08030919
C       17.42930983      -3.77995581      31.68981226       0.24945218      -0.18298201      -0.12423729
C       16.87992496      -6.24578548      27.60495847      -0.53247856       0.48916136      -0.62395901
C       16.77504600      -7.46979626      26.66797377       0.23055779       0.22517126      -0.28619638
C       18.16962558      -7.99817349      26.31649484      -0.20109269      -0.07862071      -0.12739744
C       18.13109268      -9.00717230      25.16498942       0.46067280      -0.06106109       0.26165174
C       18.13240477      -7.88306359      23.01847442       1.26674539      -0.37932676      -0.03036451
C       17.34661968      -7.16349648      22.05279192      -0.36678467       0.66191308      -0.82234023
C       16.75991102      -6.51514705      21.22396203       0.56683910      -0.51592502       0.65726031
C       16.03244135      -5.71894564      20.23656643      -0.42688194       0.19877351      -0.24273273
C       17.73477698      -5.77061980      18.46699700       0.07324366      -0.08978807       0.01997658
C       17.78147477      -4.01754726      20.06956026       0.15167197       0.03870201       0.13985844
C       15.15315655      -6.67375705      19.41162492       0.10059880       0.05553995      -0.00568960
C       15.10472672      -4.75300083      20.99705950       0.12160982      -0.01484502       0.01202576
C       16.06039465      -8.13315761      24.32632214      -0.30178215       0.27904106       0.15204999
C       16.00198686      -7.05814049      25.41042705       0.04875118      -0.10735792       0.06165987
C       17.82163433      -7.59005944      29.46203044       0.32431765      -0.29858153       0.01858178
C       20.09963397      -3.03835254      26.26273464       0.02736490      -0.51679786       0.00516487
C       19.49278002      -4.23184994      25.49868733      -0.31926562       0.30822207      -0.15951701
C       19.72047166      -4.08337038      23.98672499      -0.30323257      -0.20117956       0.21301346
C       21.52029635      -5.63184989      24.09050861      -0.08826192      -0.30327465       0.31856380
C       21.34152500      -5.72812496      25.60006069       0.20369491      -0.14483077      -0.23233707
C       22.66843775      -0.79317805      29.22193089      -0.23439056       0.18402222       0.06849072
C       23.10813913       0.39932168      28.37678842       0.19604909      -0.23443281       0.09120351
C       23.98002653      -0.09333066      27.22431938      -0.35358603       0.11740771      -0.06442839
C       22.70668841      -2.31158417      21.04157280      -0.23370186      -0.29988009      -0.34055345
C       22.59089259      -3.19097241      19.93601183      -0.13557889      -0.01962711       0.66063814
C       21.93345287      -4.41113343      20.05117286      -0.00498533      -0.12613411      -0.20002743
C       21.43101843      -4.76393221      21.28387672      -0.14853659      -0.15996195       0.09927469
C       21.55077328      -3.91024339      22.39163583       0.09199893       0.24833538       0.19158266
C       22.15655190      -2.67656322      22.26823362      -0.06473213      -0.14640043      -0.12642115
F       16.03925760      -8.48678592      27.30166734      -0.07686932      -0.14978921       0.04158297
H       28.03845057      -0.95952059      19.18529682       0.07499767       0.04712678       0.05423954
H       28.48219751      -2.62832376      18.81088385       0.02316431      -0.01443730       0.05157697
H       28.38028842      -1.42290458      17.51289979       0.02541564       0.02994767       0.03168551
H       26.01978504      -2.47146768      19.15057936       0.09607400       0.13209816      -0.22969780
H       25.79360052      -4.64674079      18.43057928       0.06890846      -0.01883494      -0.07872994
H       26.30836104      -5.00962262      16.75705108       0.03181994      -0.07947768       0.10298172
H       27.51683623      -4.54858473      17.98160854      -0.07765724      -0.03069900      -0.04547013
H       26.26322676       1.63492631      15.78793391      -0.06217972       0.11096973      -0.03161175
H       24.03238546       2.37997486      16.64648712      -0.00880042       0.04992982      -0.02257251
H       22.86798020       0.91372616      18.30250483      -0.02729657       0.00014198       0.01848970
H       24.02679436      -2.74136678      16.96148953      -0.18662019      -0.19846367       0.20065894
H       23.17628515      -4.18666969      17.52696993       0.12378423       0.16012302      -0.01342187
H       21.00045350      -2.95457720      17.38363283      -0.06537921       0.01285423      -0.02023272
H       21.85416588      -1.52303270      16.79630326      -0.00632439       0.03061290      -0.01346149
H       21.82520502      -2.99403768      15.81876243      -0.06411820       0.00173149      -0.10091571
H       23.84435672       0.90233111      20.76554947      -0.05959424       0.04345016       0.11864513
H       22.93233236       0.19867022      22.10987087       0.00382006       0.14343334      -0.06516332
H       24.34387141       1.47055022      23.62711980       0.00898255       0.05848773       0.02666526
H       26.08990645       1.21353430      23.68502933       0.06732051       0.05285410       0.05197736
H       25.37365552       2.09404062      22.33407766       0.01491323       0.08969983      -0.04113326
H       26.23283085      -1.22909694      20.88277373       0.04940719      -0.05294159      -0.08188682
H       26.27386233       0.50218607      20.54754700       0.01880569       0.02384913      -0.07331229
H       27.19526778      -0.15949868      21.90085126       0.08241705       0.00306890       0.02584212
H       26.01391694      -1.36845719      23.69276998      -0.18730386       0.05825652      -0.10752991
H       24.74196421      -2.14601300      22.73456773       0.10214049       0.16754762       0.12497292
H       22.32978658      -0.71646173      25.96315133       0.11870710      -0.08363167       0.07988103
H       23.56688953      -2.79011305      27.61451388      -0.25606455       0.12354071      -0.04672116
H       20.94261346      -4.18950172      27.89336998      -0.22323945       0.26612543      -0.14507465
H       18.12794027      -3.43506318      27.87617390       0.10935735      -0.24556285       0.19262817
H       16.75446166      -4.41489097      29.19395598       0.16237630      -0.17556460       0.15822708
H       18.01377789      -5.83028258      31.57673657      -0.12085712       0.07203985      -0.09127547
H       15.09698653      -5.03108806      31.07310831      -0.08120960       0.02803336      -0.01504041
H       15.66609373      -6.69573203      31.06705435      -0.06725630      -0.08239565      -0.00981535
H       15.72986832      -5.74960074      32.55449304      -0.07459412      -0.01560578       0.05148381
H       17.37833522      -3.80024720      32.77433988      -0.02425035       0.05158197       0.07911764
H       18.39377461      -3.36834520      31.39726576      -0.02054569       0.06056575       0.07389092
H       16.65059269      -3.11840413      31.31791783      -0.07613539       0.06168150      -0.01590843
H       18.78164181      -7.14010358      26.03429640      -0.04378011      -0.14203637       0.01183039
H       18.62704251      -8.47234468      27.18059070      -0.00796388       0.09573222       0.02537101
H       17.60292260      -9.91425778      25.47279176       0.09897887       0.07777015      -0.08056812
H       19.14850611      -9.26079620      24.86194972      -0.24888909      -0.00401146       0.06687794
H       18.42850215      -6.43786744      19.00262041      -0.06721659       0.05308043      -0.05877722
H       17.09650090      -6.36444920      17.82000040       0.06473609      -0.02276775      -0.01525813
H       18.31963795      -5.10238083      17.83639455       0.00935880      -0.07537771       0.01542290
H       18.36181324      -3.45861309      19.33696370      -0.00651442       0.00035390       0.07450016
H       17.17837119      -3.30931281      20.62951982       0.05148649       0.02297937       0.01049968
H       18.48734474      -4.50862152      20.75833238      -0.10646047       0.06732539      -0.09532921
H       15.72873114      -7.50039048      19.00698205      -0.02083300       0.00758029      -0.02569907
H       14.37530749      -7.08897939      20.04646016       0.00639548      -0.01209151       0.00383292
H       14.69172925      -6.11851509      18.60034195      -0.03766560       0.03104849      -0.06466677
H       15.63371690      -4.22877164      21.78816168      -0.02401501       0.01777649      -0.03791748
H       14.69518523      -4.03226123      20.29617123      -0.04038582       0.04475761      -0.05583784
H       14.29131225      -5.31000955      21.45347962      -0.00332437      -0.00794316       0.03379038
H       15.56019765      -7.78177497      23.42444626       0.04605358      -0.14559436       0.17759579
H       15.57630209      -9.04777628      24.67813778       0.00325284       0.08394957      -0.12601142
H       14.96794829      -6.84779169      25.68445175       0.10270568       0.06052079       0.02357080
H       16.44935505      -6.13573923      25.03744802      -0.11591552      -0.14052011       0.01274689
H       17.59370222      -7.61394760      30.52307074       0.00093919      -0.04382801      -0.07771513
H       17.39575504      -8.47627274      29.00620551       0.01223693       0.10055179       0.03801832
H       18.90948613      -7.58403316      29.34999083      -0.13798020      -0.09073786       0.10334479
H       19.45007151      -2.17385712      26.12798719      -0.00113808       0.06778168      -0.05396381
H       21.08187546      -2.82474631      25.84743793      -0.21760668       0.06689441       0.08615121
H       18.41701324      -4.29738739      25.69972626       0.25262310       0.08990240      -0.08333534
H       19.43337829      -3.08078234      23.66649574      -0.02328039      -0.08161708       0.02428569
H       19.08660359      -4.81872282      23.45411300       0.08242426       0.17405092       0.08316752
H       20.91271616      -6.41435891      23.60477662       0.17072619       0.16924722       0.10197823
H       22.56878596      -5.78194191      23.83025635      -0.06120256      -0.00408274       0.05024584
H       22.01245236      -5.01399358      26.09012902      -0.04036756      -0.09188179      -0.01300850
H       21.55405999      -6.73699107      25.95675115       0.04912271       0.13164570      -0.03841434
H       21.95394381      -0.50353860      29.99204711       0.17582044      -0.07577552      -0.12098668
H       23.53636444      -1.26619084      29.69462009      -0.06251202       0.05566018      -0.01161388
H       23.66265126       1.10116024      28.99797841      -0.04966447       0.05081177      -0.01332036
H       22.22626729       0.90474148      27.98183661      -0.00326080       0.03908956       0.05491333
H       24.90132401      -0.53455251      27.61349218      -0.03412485       0.00966425      -0.07030688
H       24.24247022       0.72750410      26.55830003       0.06086822      -0.03012717       0.00236127
H       21.82557353      -5.07579820      19.20687747       0.00370991      -0.02464752      -0.01560751
H       20.93769795      -5.71869847      21.40597260       0.00218740       0.01680543       0.00052632
H       22.21335220      -2.03006941      23.12855443       0.06222424      -0.01768847       0.05655069
