151
Properties=species:S:1:pos:R:3:MACE_forces:R:3 energy:=T -221.336528352658=T gnorm:=T 0.009886093318=T xtb:=T 6.7.1=T (edcfbbe)=T MACE_energy=-90873.38996471895 pbc="F F F"
C       27.44164008      -2.35494225      17.98219264      -0.33048745      -0.18893903      -0.15734421
N       25.95811310      -0.20911814      16.86771804       0.25102113      -0.20368760      -0.08313307
O       25.47035150      -3.11079006      16.72543002       0.10207351       0.10954056       0.00031540
C       25.91767545      -2.39622107      17.87569713       0.12434637      -0.08239103       0.20148309
N       22.93973975      -2.60592282      19.06219198       0.32456703      -0.09336979      -0.02872707
O       24.31191451      -1.04105808      24.44643338      -0.14601440       0.58746268      -0.43896307
C       25.63668751      -4.50926163      16.79692340      -0.01556597       0.13114838       0.06733345
N       22.83849061      -2.17206130      27.48755709       0.43023579      -0.26271042       0.05480925
O       19.88928225      -8.11710963      22.95225183      -0.70575078       0.20330476       0.04613063
C       25.34608679      -0.99690643      17.73977929      -0.29966327      -0.16004964       0.21446921
N       22.06640482      -1.61502763      28.51260951       0.94464886       0.48940410      -0.04779654
O       16.65626481      -5.13491287      26.68354546       0.13595620      -0.48479036       0.15749625
C       25.51157919       1.01901034      16.67840778      -0.08727368       0.24806675      -0.05770987
N       18.98792030      -3.60824419      28.46795042       0.14220930       0.66568796      -0.43055076
O       19.57780500      -5.46185716      29.61088508      -0.27284929       0.15776645      -0.06018388
C       24.42674563       1.54594025      17.36296472       0.05072766      -0.04163013       0.00396183
N       17.04496666      -6.33716274      28.53667913      -0.19495747       0.08511962       0.44147001
O       20.12160604      -5.52056541      26.29996476       0.01951828       0.15852950      -0.03217199
C       23.78349874       0.73465729      18.27888558       0.05914329      -0.12210640      -0.07293964
N       17.81431460      -8.49552479      23.80067422      -0.20527698      -0.28335456       0.08541069
O       20.13032741      -1.52055304      29.64549920       0.32904413      -0.10080842      -0.40120253
C       24.23115679      -0.57076429      18.47905102       0.12711195       0.27873964      -0.26355452
N       15.85074165      -5.32828787      20.07084330      -0.10889691      -0.06213072       0.05365547
O       24.89070319      -2.78041233      25.73894133      -0.43727895       0.63874147      -0.04673546
C       23.54914017      -1.43084050      19.45006641       0.06324610       0.25637590       0.40313149
N       21.26377286      -4.37078747      24.02043289       0.00838462       0.00704556      -0.22546290
C       22.54391514      -2.94563253      17.71748624      -0.30733336       0.09850593      -0.39250757
C       21.13356874      -2.43720429      17.42275525       0.16559927      -0.15376698       0.06749770
C       23.43978720      -1.26059367      20.81265210      -0.00001719       0.19205770      -0.37427168
C       23.96568993      -0.13202898      21.64014305       0.16488460      -0.12568780      -0.01167237
C       25.32506698      -0.38858795      22.33193014      -0.07041072       0.01044924       0.25875327
C       25.79758340       0.91436222      22.98101775      -0.10153964      -0.17076022      -0.09769581
C       26.36001285      -0.85121043      21.30605723      -0.14239075      -0.03382059       0.20675053
C       25.20735430      -1.47278991      23.40967365       0.39286561      -0.30339753      -0.33977865
C       24.24688546      -1.77045022      25.54297337       0.20245043      -1.08569463       0.70893229
C       23.31215024      -1.14410660      26.56510995       0.17766145       0.08152862      -0.04905795
C       20.82062625      -2.04414989      28.77782882      -1.07345172      -0.28760110       0.46238244
C       20.31058139      -3.25758364      27.99719804      -0.01111839      -0.16630657       0.05278729
C       18.71511659      -4.72539628      29.14740673       0.02849827      -0.38608729       0.32336051
C       17.21712538      -5.06131466      29.24323728       0.12644294       0.29464416       0.04373525
C       16.69661160      -5.02440846      30.68286409      -0.00004599      -0.00584453      -0.12068248
C       15.21718383      -5.40295291      30.73150755       0.27465388      -0.06637994       0.05963850
C       16.88695080      -3.60617182      31.22355730       0.18579268      -0.29288907       0.00052966
C       16.83654372      -6.23437052      27.21835551      -0.53494889       0.57764642      -0.70341067
C       16.81791849      -7.48050792      26.30585818       0.27276406       0.21263625      -0.26346308
C       18.23249702      -8.04759078      26.15319664      -0.19082140      -0.12657514      -0.20311310
C       18.30927389      -9.08156889      25.02449833       0.45456115      -0.05609732       0.33446730
C       18.67058351      -7.92304828      22.93322636       1.02702599      -0.50640798       0.08924846
C       18.08242271      -7.04945223      21.95324211       0.01929273       0.83753485      -0.83922886
C       17.75625351      -6.20727226      21.15663459       0.07609988      -0.76734961       0.64300052
C       17.30013038      -5.16825288      20.23858087       0.16318423       0.35613458      -0.08247625
C       15.45164081      -6.63084714      19.57227949      -0.16791664      -0.07036317      -0.01461317
C       15.18896652      -4.27896416      19.32254307       0.11592252      -0.02220090       0.06088796
C       17.62175536      -3.83635079      20.94130197      -0.00170820       0.00324591      -0.03999221
C       18.11360885      -5.26880781      18.93395471      -0.09189249      -0.00898052       0.07065902
C       16.41438952      -8.14751408      23.88693758      -0.32731186       0.26872288       0.14187707
C       16.21817210      -7.07518528      24.95464980       0.08227414      -0.07023796       0.05393094
C       17.43230554      -7.54338071      29.23640093       0.36620962      -0.32943921       0.11968136
C       20.25403716      -3.06484409      26.47757102       0.08964385      -0.53724785       0.00829447
C       19.62577359      -4.28883707      25.79024968      -0.40357674       0.34157488      -0.24184578
C       19.84711430      -4.21670785      24.27750350      -0.25879615      -0.18097239       0.32023440
C       21.71091649      -5.68241881      24.45416849      -0.05189692      -0.30248224       0.29400388
C       21.47412793      -5.77591256      25.95933775       0.29392267      -0.10835973      -0.15810567
C       22.67985750      -0.54643794      29.29017163      -0.22715993       0.17445494       0.06291081
C       23.15005483       0.57105379      28.36353647       0.18846102      -0.23723178       0.10151326
C       24.06569948      -0.01323658      27.29017111      -0.33747876       0.13957437      -0.10425693
C       22.71723281      -2.39134745      21.29611939      -0.30314166      -0.29722666      -0.33041904
C       22.43327475      -3.21193659      20.17709736       0.00556336      -0.00754618       0.64898919
C       21.78687515      -4.43433658      20.31923949      -0.08271063      -0.14587558      -0.19966474
C       21.41424334      -4.83187215      21.58408500      -0.14215021      -0.12059359       0.05537094
C       21.64869083      -4.00776775      22.69513549       0.09489739       0.16578906       0.23932987
C       22.27710665      -2.78954336      22.55622185       0.00109489      -0.10189438      -0.13377111
F       15.98492646      -8.46945654      26.85732581      -0.11161197      -0.13182886       0.04213685
H       27.83761077      -3.35280325      18.15111156       0.03980072      -0.01232597       0.04044847
H       27.85153748      -1.95074015      17.06185388       0.03567323       0.03713147       0.02868584
H       27.73070727      -1.72210358      18.81418887       0.08209761       0.04877750       0.07246782
H       25.49864678      -2.87738243      18.77481413       0.08221694       0.15828571      -0.25310041
H       25.15265201      -4.91465062      17.69556474       0.06027704      -0.00628643      -0.09881601
H       25.15497830      -4.91055830      15.90673753       0.06706910      -0.08581905       0.11235613
H       26.69298075      -4.79486968      16.79663477      -0.09972343      -0.02933272       0.00135263
H       26.05470440       1.59916050      15.94446536      -0.05967780       0.12385872       0.00740722
H       24.09672603       2.55448112      17.17781527      -0.01754161       0.07038410      -0.00432757
H       22.92595245       1.08990891      18.83267341       0.00012572       0.00111832       0.00799214
H       23.25787882      -2.51236217      17.01535238      -0.11809344      -0.21955478       0.21721220
H       22.57718878      -4.03243455      17.61358298       0.12915989       0.14501533      -0.05339508
H       21.09749197      -1.35407220      17.51203913      -0.01090931       0.03394184      -0.00808968
H       20.84356284      -2.71676393      16.41508589      -0.09188840       0.00519417      -0.10408263
H       20.42489715      -2.86784893      18.12761956      -0.05970049       0.03062964      -0.02790099
H       24.08873642       0.74445650      21.00289840      -0.04178445       0.03912183       0.12044017
H       23.23316554       0.10426676      22.41405646       0.00970171       0.13865109      -0.08410181
H       25.93895502       1.68082953      22.22281692       0.00544915       0.06870005      -0.02434800
H       25.06663603       1.26494302      23.70345796      -0.01674808       0.09505849       0.04215029
H       26.74497478       0.76091293      23.49048555       0.10020159       0.02206372       0.07958113
H       26.40630084      -0.14142025      20.48256264       0.02816543      -0.00922308      -0.04032665
H       27.34629550      -0.92018069      21.75973006       0.06629168      -0.00127497       0.01103748
H       26.09458710      -1.82665385      20.90692577       0.01682858      -0.03317320      -0.07307246
H       26.18362256      -1.67669380      23.86059686      -0.16262387       0.05468250      -0.09941938
H       24.82591298      -2.40796321      22.99032979       0.10134004       0.16417413       0.09642347
H       22.44098951      -0.72475702      26.04936283       0.16850363      -0.08774197       0.07285788
H       23.63988118      -2.67760225      27.86790563      -0.23884780       0.10916123      -0.04744772
H       20.95779246      -4.10567610      28.24892502      -0.18182078       0.22309635      -0.14943173
H       18.23293635      -3.01635798      28.15685329       0.05952119      -0.32589293       0.10255297
H       16.65184723      -4.32812973      28.65900611       0.13641283      -0.17990076       0.23019322
H       17.28980524      -5.70700512      31.29817898      -0.08389185       0.08242223      -0.09497560
H       14.63503692      -4.68397370      30.15955115      -0.07013481       0.03535009      -0.03442738
H       15.03565804      -6.38954777      30.31550742      -0.04727814      -0.07311839      -0.01303473
H       14.86600984      -5.38919754      31.76119379      -0.06635711      -0.00926547      -0.00755923
H       16.29044367      -2.90105237      30.65233636      -0.07820177       0.11455211      -0.06942160
H       16.57054125      -3.55991033      32.26100863      -0.02665787       0.05421284       0.08939056
H       17.92759020      -3.29955220      31.16560504       0.03658851       0.09065236       0.05219949
H       18.89884563      -7.21182494      25.93739210      -0.03348340      -0.12535768       0.00745492
H       18.56270906      -8.50742148      27.08067033      -0.02240025       0.09571238       0.04366329
H       17.69788224      -9.95396581      25.26651371       0.10446669       0.04453674      -0.06727190
H       19.34535782      -9.39016252      24.87181816      -0.27233040       0.01703390       0.02939047
H       14.39136239      -6.77477310      19.80517868       0.18961306      -0.05047847      -0.11977112
H       15.58463052      -6.73810318      18.48303801      -0.00082922      -0.01579830       0.14990992
H       16.02541126      -7.40830745      20.07537806      -0.13340493       0.00761681      -0.10489020
H       15.38147590      -3.31265783      19.77830786      -0.04501453       0.05159949      -0.06940659
H       15.48702731      -4.24895449      18.26391082      -0.03283255       0.03966867       0.03824839
H       14.11755674      -4.46844529      19.36537015       0.01717206       0.07816458      -0.04309027
H       18.65800082      -3.85096617      21.27988812      -0.08802994       0.06962830      -0.06428759
H       17.49319048      -2.99786900      20.26022600       0.00818549       0.01691219       0.02234394
H       16.97111934      -3.70838831      21.80592132       0.04159501      -0.00663456      -0.07856707
H       17.92946576      -6.21585421      18.43051899       0.01775248       0.03496731       0.00104612
H       17.85093433      -4.44988090      18.26726111       0.01904950      -0.00745048      -0.02888259
H       19.17250830      -5.20365972      19.17009055       0.01052109       0.02499122      -0.07571214
H       16.06541596      -7.77381545      22.92535947      -0.00288665      -0.14699742       0.14275094
H       15.85855329      -9.05136778      24.15018987       0.03275534       0.09271173      -0.12614195
H       15.15790961      -6.86086404      25.09130133       0.10105378       0.06453728       0.03371267
H       16.71143210      -6.15406046      24.63991530      -0.12530545      -0.16275879       0.01021698
H       17.05213415      -8.42232071      28.73230472      -0.04062049       0.07071220       0.02002066
H       18.52107585      -7.58910061      29.31771954      -0.17863174      -0.05884823       0.07912317
H       17.01777651      -7.52191208      30.24038731       0.00245436      -0.05018175      -0.07488621
H       19.64342051      -2.19189100      26.24314370       0.01577299       0.05467221      -0.04438530
H       21.25928887      -2.92392818      26.08719161      -0.27150705       0.09760206       0.06691563
H       18.55123381      -4.33066577      25.99863876       0.32962589       0.10926120      -0.09981228
H       19.51790398      -3.24768765      23.89927244      -0.02345603      -0.08188549       0.02712117
H       19.24911593      -5.00796750      23.78468951       0.08391361       0.20688398       0.06833089
H       21.18180721      -6.50316744      23.94337166       0.11280072       0.16553937       0.09895095
H       22.77922052      -5.77421670      24.25125103      -0.07268209      -0.02259199       0.03368602
H       22.13819221      -5.07000274      26.47226944      -0.06246206      -0.08209940      -0.02615804
H       21.67486120      -6.78610973      26.31983944       0.06210500       0.14028059      -0.03833867
H       21.93090286      -0.19525469      29.99885118       0.18736219      -0.07831882      -0.08955641
H       23.52994848      -0.96416929      29.84069991      -0.05496678       0.04741572      -0.01280460
H       23.67819926       1.32481912      28.94549074      -0.04369417       0.04490586      -0.01920693
H       22.28471593       1.03904973      27.89307170      -0.00656578       0.03947380       0.04780762
H       24.96855974      -0.42313138      27.74975233      -0.01703416      -0.00173310      -0.06994964
H       24.35867000       0.75037955      26.57146380       0.05885555      -0.02443083       0.01171679
H       21.59897451      -5.07168394      19.46770720      -0.00620095      -0.00866287      -0.01328381
H       20.92975502      -5.78794118      21.72179299      -0.00699580      -0.02428928       0.03603250
H       22.41883141      -2.17280515      23.42762057       0.05418047      -0.01795393       0.04642191
