151
Properties=species:S:1:pos:R:3:MACE_forces:R:3 energy:=T -221.337751402255=T gnorm:=T 0.003942737220=T xtb:=T 6.7.1=T (edcfbbe)=T MACE_energy=-90873.4094393996 pbc="F F F"
C       27.54095142      -1.71012749      17.93752267      -0.26996435      -0.25108752      -0.12841662
N       25.61395422      -0.00137504      16.74586334       0.28228517      -0.09679938      -0.10451045
O       25.81549992      -2.91550635      16.66129598       0.08119079       0.13081122       0.04045548
C       26.07094334      -2.10892665      17.80987883       0.10535276      -0.05676477       0.13738786
N       23.07543551      -2.89697524      19.06379066       0.26936495      -0.03825744      -0.06555467
O       24.14730747      -1.02156206      24.39886275      -0.24028728       0.61713245      -0.46892801
C       26.39459825      -4.20216896      16.69249882      -0.07010618       0.19758919       0.04051647
N       22.84005088      -2.29471804      27.45287742       0.42897552      -0.23907929       0.01194222
O       19.87778149      -8.10947818      23.06325126      -0.70486457       0.27757261       0.00858476
C       25.19655729      -0.88082303      17.64556711      -0.25875248      -0.23007733       0.23729256
N       22.10383478      -1.79952493      28.53486618       1.03754917       0.45707602      -0.03529633
O       16.69437102      -4.94901390      26.81525802      -0.00991186      -0.43166854       0.13620814
C       24.90215820       1.08840315      16.52346506      -0.10027543       0.18167759      -0.05598949
N       18.96364886      -3.69538582      28.48277948       0.18647326       0.57633586      -0.44158928
O       19.48992554      -5.56143946      29.64232259      -0.26327800       0.16803531      -0.01538164
C       23.72619692       1.37699887      17.19881152       0.02321175      -0.02657698       0.02394250
N       16.85566456      -6.24969219      28.63227963      -0.21977940       0.12677193       0.46190490
O       20.29350732      -5.67335798      26.36464485       0.06634704       0.14471395      -0.05157955
C       23.28625500       0.46944606      18.14348847       0.10610556      -0.07610780      -0.10975112
N       17.75575635      -8.28407971      23.86015128      -0.22428325      -0.23982894       0.14362992
O       20.19583524      -1.70366114      29.71057484       0.36040426      -0.10141749      -0.45681274
C       24.01805585      -0.69485095      18.38146870       0.05684379       0.29146327      -0.25474515
N       16.06967225      -5.09029906      20.13417487      -0.04436085       0.00370283       0.04057023
O       24.91676206      -2.71355441      25.65023002      -0.41108374       0.43534000       0.01727550
C       23.51541931      -1.63241821      19.39151458       0.06488386       0.28895695       0.38511444
N       21.39686168      -4.52492466      24.06910905       0.01525682      -0.01954418      -0.21716426
C       22.90265843      -3.42854758      17.73463520      -0.25315699      -0.00705404      -0.40165365
C       21.46510668      -3.25540784      17.24879106       0.20199700      -0.10771351       0.08624695
C       23.33572865      -1.39924198      20.73753019       0.04058964       0.12603072      -0.33282328
C       23.69866379      -0.18247225      21.52646339       0.13362725      -0.09241547      -0.03632488
C       25.05601985      -0.25493684      22.26466402      -0.07330019       0.00704762       0.29389904
C       25.32799653       1.10011340      22.92320089      -0.09370197      -0.22170778      -0.05351607
C       26.17336828      -0.57672826      21.27233249      -0.17177697      -0.07065298       0.18333263
C       25.06250516      -1.34873763      23.34120569       0.43767116      -0.28365699      -0.34088268
C       24.18385457      -1.76237460      25.48964858       0.23133301      -0.93365788       0.61597062
C       23.25383601      -1.21485890      26.55942040       0.25192469       0.09970404      -0.02550826
C       20.85306985      -2.20859065      28.80564544      -1.13609650      -0.29162369       0.56056387
C       20.29845399      -3.39473511      28.01088063       0.02534085      -0.10511569       0.07935404
C       18.65679667      -4.77810133      29.20152384       0.02207482      -0.36519814       0.26129340
C       17.14787975      -5.01736360      29.38141439       0.19098093       0.24941477       0.06784563
C       16.74366525      -5.01723852      30.85838147      -0.03650394       0.07268094      -0.14790319
C       15.23017703      -5.16596572      31.00445924       0.27568260      -0.14414314      -0.04910504
C       17.19667301      -3.69315736      31.47666733       0.18470708      -0.25585281      -0.03412246
C       16.73220086      -6.07922561      27.31079602      -0.40979316       0.46165964      -0.73729576
C       16.67645049      -7.28310832      26.34203575       0.30714862       0.19803887      -0.20612608
C       18.05916610      -7.93910485      26.25427387      -0.17352435      -0.07323924      -0.14547012
C       18.15234298      -8.92975071      25.08916498       0.38889853      -0.08759195       0.34112342
C       18.67898625      -7.82090189      22.99886053       1.00784248      -0.56969763       0.09444218
C       18.18348662      -6.95575004      21.96035126       0.14660616       0.78524145      -0.86692547
C       17.93646322      -6.14381552      21.10573645      -0.01046683      -0.73185907       0.70897636
C       17.53735403      -5.15821420      20.10522867       0.22333984       0.26851118      -0.13967781
C       15.41575488      -6.33983948      19.79847422      -0.09896678      -0.03316556      -0.01346542
C       15.47653695      -3.99759556      19.39136724       0.07814696      -0.02293280       0.05475523
C       18.15491622      -3.82275155      20.55368176       0.02312434      -0.07028235      -0.05336856
C       18.13704820      -5.56750632      18.74551692      -0.10462403       0.03007784       0.11229905
C       16.38059676      -7.84418687      23.88436385      -0.33989488       0.29415503       0.11916544
C       16.19564730      -6.78926376      24.97345694       0.04546547      -0.14307872       0.05030400
C       17.07024201      -7.50657444      29.31584087       0.27877242      -0.32830625       0.13464739
C       20.26127454      -3.21531436      26.49129846       0.08236302      -0.58947804       0.01686935
C       19.72687021      -4.48955145      25.81588834      -0.38925371       0.29790393      -0.24887906
C       19.97033394      -4.43525568      24.30571594      -0.26200426      -0.19005832       0.29675913
C       21.91732709      -5.78850135      24.56179823      -0.02395228      -0.30266484       0.29848348
C       21.67325677      -5.82452980      26.06656423       0.21176279      -0.13872601      -0.16710641
C       22.75889899      -0.78147534      29.34473408      -0.25166308       0.20801928       0.07656878
C       23.15043988       0.40155856      28.46405691       0.20361983      -0.22573561       0.07646514
C       24.01019399      -0.09549968      27.30372264      -0.36448927       0.11437819      -0.05109704
C       22.73571788      -2.57796579      21.26748086      -0.22928578      -0.28327901      -0.31671101
C       22.59243057      -3.49144655      20.19470068      -0.06245804       0.02330664       0.64945161
C       22.04843912      -4.75657656      20.39257587      -0.02261462      -0.16426860      -0.15895596
C       21.65690931      -5.10318657      21.66712156      -0.12565473      -0.17071654       0.09554932
C       21.77866979      -4.19937402      22.73369109       0.09830407       0.22776785       0.22106441
C       22.29284760      -2.93638258      22.53769108      -0.04846871      -0.15539336      -0.14648693
F       15.74410305      -8.23367151      26.79602965      -0.08380357      -0.09550046       0.02938368
H       27.65069050      -0.98578662      18.73808908       0.07290633       0.02858531       0.06193621
H       28.15564971      -2.57719348      18.16306177       0.04515497      -0.00928901       0.04006105
H       27.86792219      -1.26166253      17.00430220       0.01966770       0.03710513       0.02096621
H       25.75743708      -2.66705827      18.70823809       0.04049773       0.16559187      -0.23345854
H       27.47788232      -4.16217463      16.55460088      -0.04028559      -0.05159862       0.02502877
H       26.16688734      -4.71101573      17.63565941       0.02513700      -0.02804814      -0.04359329
H       25.94537776      -4.74568319      15.86457139       0.09375008      -0.09126190       0.06522082
H       25.30013765       1.75590016      15.77141769      -0.07235220       0.10161191      -0.01182899
H       23.17470115       2.27820136      16.98576498      -0.01844015       0.04691226      -0.00029247
H       22.37184683       0.63591420      18.69381031      -0.01870041       0.01527015       0.02330993
H       23.58948184      -2.92047445      17.05623081      -0.10414242      -0.22175695       0.22467765
H       23.16415752      -4.49028414      17.75493614       0.08094455       0.17607822      -0.05456642
H       21.20872560      -2.20080997      17.20008742      -0.02684190       0.05942176      -0.01525024
H       21.35969802      -3.68907677      16.25918457      -0.08418044      -0.01300316      -0.10053741
H       20.77437965      -3.75029530      17.92659759      -0.08358300       0.00549187      -0.00717270
H       23.73989182       0.67829601      20.85644057      -0.04740648       0.03005903       0.12991930
H       22.91859281      -0.00434274      22.26880845      -0.00359258       0.13880122      -0.07020967
H       24.51320772       1.36683199      23.59056536      -0.00875302       0.07476985       0.03940825
H       26.24907308       1.06264776      23.49907876       0.09403844       0.04769591       0.06202232
H       25.42688056       1.87254962      22.16626880       0.01087605       0.09480139      -0.06054012
H       26.16381454       0.14403115      20.45807231       0.01831026       0.01792121      -0.05522666
H       27.14376551      -0.53837116      21.75990479       0.10160289       0.02145605       0.02533004
H       26.03630739      -1.57016230      20.85396090       0.03337453      -0.04194763      -0.06709777
H       26.06199769      -1.44929582      23.77755927      -0.17722954       0.04207437      -0.11158313
H       24.77860075      -2.31780383      22.92064750       0.10018889       0.19484282       0.12282864
H       22.35916544      -0.80039146      26.08611777       0.12064235      -0.06962359       0.06739461
H       23.66646302      -2.79894632      27.77724174      -0.23932979       0.12136881      -0.02860827
H       20.91233272      -4.26629635      28.26971949      -0.16612278       0.25235984      -0.15279288
H       18.22203450      -3.10049696      28.14639303       0.06488962      -0.30218275       0.12406519
H       16.59413298      -4.22092164      28.87530954       0.12741083      -0.17140737       0.19355398
H       17.26220052      -5.82710132      31.37638661      -0.05180716       0.07003398      -0.08835127
H       14.96217944      -5.22913170      32.05513050      -0.07824063       0.00261667       0.05841930
H       14.73123552      -4.30130078      30.57325202      -0.05939566       0.05227834      -0.02586028
H       14.86167711      -6.05359944      30.49848866      -0.08681389      -0.06368827      -0.01960573
H       16.91893909      -3.66000425      32.52621380      -0.02132254       0.04786676       0.07259953
H       18.27558554      -3.57534349      31.40146801      -0.01841919       0.07359348       0.06176171
H       16.72972212      -2.85322791      30.96836695      -0.05873288       0.08807270      -0.02691397
H       18.80078689      -7.14841988      26.12848565      -0.05554070      -0.13402213      -0.01621167
H       18.28946453      -8.46304699      27.17947423      -0.00602495       0.11283274       0.00627213
H       17.49025821      -9.78207692      25.26401670       0.11528673       0.04857931      -0.05258541
H       19.18052974      -9.27888743      24.98213000      -0.25243326       0.01299140       0.01215075
H       14.39793164      -6.31004400      20.18902388       0.02289327      -0.07279616      -0.07213251
H       15.36124307      -6.51869365      18.71443446       0.02875746      -0.03028237       0.07249539
H       15.94137734      -7.17096476      20.26439314      -0.10060451       0.00116687      -0.04771873
H       15.61569143      -4.08585607      18.30363303      -0.01284178       0.04216350       0.02868124
H       14.40643755      -4.00334862      19.59554601       0.02908951       0.06330775      -0.06582855
H       15.87936357      -3.04825029      19.72961897      -0.03788319       0.05191159      -0.06416926
H       18.11216583      -3.09213549      19.75150096      -0.00760477       0.08105205      -0.02659353
H       17.62579064      -3.44473842      21.42374007      -0.02097389       0.01601737       0.02309389
H       19.19881585      -3.97771010      20.82260941      -0.05052053       0.05476335      -0.05937821
H       17.78029333      -6.54827825      18.44215530       0.01325120      -0.00368953      -0.02537785
H       17.86712588      -4.83760946      17.98646099       0.01209203       0.02667748      -0.05690846
H       19.22008276      -5.60647615      18.82817666       0.01702167       0.00104739      -0.05970951
H       16.10849398      -7.42429152      22.91614351      -0.01288461      -0.15265404       0.17314285
H       15.75110289      -8.71340305      24.09540325       0.04170247       0.09399701      -0.12967804
H       15.14526566      -6.50912209      25.05132902       0.08315710       0.07222492       0.04416157
H       16.76740856      -5.89650815      24.71989351      -0.10824909      -0.12798212       0.00507193
H       18.12637062      -7.59590954      29.58207927      -0.16122534      -0.05545407       0.03821315
H       16.47409679      -7.52802529      30.22445703       0.02145964      -0.05537205      -0.05000794
H       16.76645127      -8.34214521      28.69868079      -0.03401305       0.09788066       0.03630425
H       19.60234091      -2.38767520      26.23244605      -0.02014295       0.08435232      -0.03793175
H       21.26103435      -3.01857026      26.11489174      -0.26764507       0.07790004       0.05703887
H       18.65484318      -4.58808356      26.01228076       0.31601211       0.11760178      -0.11678434
H       19.60276407      -3.48941079      23.90393956      -0.02012878      -0.08136416       0.02432605
H       19.42083460      -5.25956099      23.81399720       0.08257450       0.22617322       0.09197444
H       21.43512530      -6.66200445      24.09151599       0.10588860       0.19417510       0.08838180
H       22.99016999      -5.82324311      24.36231776      -0.08619700      -0.02911967       0.04569547
H       22.25687606      -5.03032574      26.54537830      -0.03177267      -0.10358541      -0.02177601
H       21.95428017      -6.78999660      26.48894194       0.04975870       0.13165737      -0.06320403
H       22.06091819      -0.48915404      30.12870551       0.17925101      -0.07524598      -0.12785096
H       23.64973134      -1.22764249      29.80001477      -0.06081549       0.04877225      -0.00828336
H       23.70131690       1.13027583      29.05668148      -0.04824093       0.05212913      -0.01079624
H       22.24764759       0.87668266      28.07902923      -0.00371784       0.03794928       0.05009213
H       24.95240145      -0.49815324      27.68378383      -0.02530612       0.00522587      -0.06634095
H       24.23299367       0.71548179      26.61201830       0.06609690      -0.02957006       0.00020763
H       21.93978073      -5.46059076      19.58121853       0.00728447      -0.00595841      -0.04116343
H       21.23662228      -6.08191977      21.85198494       0.00285225      -0.01442573       0.00728420
H       22.34278834      -2.25417867      23.37005590       0.05347070      -0.02304238       0.04031463
