151
Properties=species:S:1:pos:R:3:MACE_forces:R:3 energy:=T -221.337709504437=T gnorm:=T 0.009164469475=T xtb:=T 6.7.1=T (edcfbbe)=T MACE_energy=-90873.45207858464 pbc="F F F"
C       27.90277811      -1.59659559      18.33598429      -0.26374864      -0.26484938      -0.08310764
N       26.04130662      -0.12466375      16.81685943       0.29975970      -0.10330466      -0.06351927
O       26.39977110      -3.07307134      17.07172836       0.05186319       0.16063656       0.01467005
C       26.47768369      -2.10675847      18.11830084       0.10762098      -0.05140556       0.15823172
N       23.32699287      -3.00080792      18.92971795       0.30197916      -0.00541909      -0.03181498
O       23.87965529      -0.99817423      24.26486025      -0.25046060       0.45572019      -0.65176256
C       26.93823528      -4.33538179      17.40299810      -0.12245147       0.21450020       0.00156260
N       22.58149141      -2.03413083      27.36175785       0.44207963      -0.22972080       0.09703933
O       19.57014124      -8.22395403      22.83828476      -0.46248066       0.17699081       0.11184138
C       25.56217966      -0.96371776      17.72463688      -0.26917720      -0.22536884       0.22171090
N       21.68881850      -1.56159218      28.32932144       0.81857037       0.57481253       0.03805354
O       16.69699981      -5.26621584      26.95204147       0.04721661      -0.42570345       0.09829946
C       25.30981231       0.90689621      16.43520419      -0.16810608       0.11698656      -0.05517308
N       18.92161216      -3.94494684      28.25383675       0.12401650       0.56495119      -0.58629627
O       19.78340713      -5.45122735      29.69846811      -0.25500983       0.05057505      -0.03397388
C       24.05391414       1.17874309      16.95637595       0.03493256      -0.03612379       0.02816533
N       17.16115818      -6.57803566      28.71157318      -0.21818126       0.11487636       0.43341795
O       20.06585997      -5.70664491      26.08482276       0.05319751       0.12607176      -0.03081641
C       23.54417332       0.30692897      17.90046353       0.12455480      -0.04510226      -0.07921971
N       17.54923857      -8.51344545      23.83043410      -0.19954591      -0.28647386       0.13566289
O       19.73490953      -1.74014982      29.41637123       0.35138991      -0.04702901      -0.41753033
C       24.29193047      -0.80226596      18.29507158       0.07652717       0.30407559      -0.26294628
N       16.13250334      -4.21699479      20.95218638      -0.04897341      -0.03576328       0.10631849
O       24.93187112      -2.18715371      25.84964862      -0.47730913       0.28358100      -0.10315502
C       23.71014244      -1.72308427      19.27901511       0.01245861       0.24181330       0.38130698
N       21.29019805      -4.62339194      23.80869007      -0.00192242      -0.04206156      -0.11102522
C       23.28720882      -3.52295949      17.58571134      -0.16428240      -0.01424248      -0.47302789
C       22.00428599      -3.10846298      16.86808455       0.13417175      -0.15491697       0.12639065
C       23.39669380      -1.47361203      20.59545351       0.07409061       0.15918354      -0.29863151
C       23.62241186      -0.21979320      21.37787656       0.17615315      -0.09686814      -0.01024180
C       24.91647585      -0.17948645      22.22351060      -0.12627124       0.01140969       0.26297020
C       25.01629839       1.19367363      22.89334463      -0.02308142      -0.21822037      -0.06323611
C       26.14028123      -0.40696197      21.33927918      -0.18750527      -0.06478242       0.18189441
C       24.90940070      -1.27036727      23.30079985       0.48288060      -0.15818597      -0.23720004
C       24.01458726      -1.48827159      25.47791643       0.29399813      -0.68736612       0.88744730
C       22.90761874      -0.99217373      26.39268109       0.26101674       0.16503001      -0.03946890
C       20.51167477      -2.16384651      28.56826104      -0.91198398      -0.35557385       0.43967511
C       20.18854878      -3.43687527      27.77652301      -0.00897861      -0.24606966       0.17874133
C       18.81881405      -4.90689882      29.17275576       0.04001430      -0.20142633       0.35468356
C       17.37295492      -5.33642101      29.47252816       0.16643057       0.29397960       0.07182338
C       17.10767854      -5.41936075      30.97866415       0.03165405       0.00928481      -0.13381556
C       15.67725999      -5.86864474      31.26509296       0.21421136      -0.00576435      -0.04482382
C       17.34669517      -4.03357974      31.58091230       0.25944733      -0.21741577      -0.08455764
C       16.87679562      -6.39628299      27.41525695      -0.51408601       0.42777706      -0.63413529
C       16.75394695      -7.59737040      26.44740259       0.26408721       0.22471860      -0.23153901
C       18.12885354      -8.21736399      26.17472303      -0.21054520      -0.08877355      -0.13092783
C       18.09833962      -9.18228642      24.98557881       0.42701344      -0.07532015       0.28098264
C       18.36715014      -7.96900659      22.91218353       0.89985051      -0.53581341      -0.00170870
C       17.76332227      -7.05098989      21.98668554      -0.02449636       0.99465057      -0.82701590
C       17.47983224      -6.15276113      21.23537092      -0.05384544      -0.81363929       0.61077298
C       17.08842050      -5.11395629      20.28847618       0.08413965       0.04792527      -0.36108931
C       15.63083318      -3.13952025      20.12368174       0.02314829      -0.04978832       0.02081834
C       16.58337332      -3.69799262      22.22681958       0.05645240       0.05538047       0.12537861
C       18.38370139      -4.43294733      19.79860345      -0.11134188       0.03398918       0.11475666
C       16.40003853      -5.83035367      19.11294792       0.09774381       0.03828833       0.00428077
C       16.17486355      -8.11794468      24.02155156      -0.34885327       0.26363891       0.17455670
C       16.08183592      -7.10486658      25.16076137       0.04434592      -0.10340692       0.01414785
C       17.61961690      -7.81385530      29.30860233       0.31219042      -0.32074872       0.03943883
C       20.14522152      -3.24522574      26.25690769       0.06701654      -0.57085212      -0.00411932
C       19.58286248      -4.48779810      25.53822347      -0.34162239       0.39139423      -0.18815892
C       19.87381720      -4.41136835      24.03382485      -0.31531938      -0.21137060       0.23086016
C       21.67275774      -5.94289623      24.27990807      -0.08533233      -0.23289852       0.31302956
C       21.42694045      -5.96796691      25.78475385       0.24213011      -0.14982065      -0.18948404
C       22.09905837      -0.37707206      29.07018539      -0.27106042       0.15521388      -0.00228722
C       22.37297024       0.76145802      28.09030428       0.23817905      -0.19638707       0.13210285
C       23.40571303       0.30419911      27.06270754      -0.34935892       0.03894029      -0.09951012
C       22.77341187      -2.65901544      21.08723862      -0.22306747      -0.30564381      -0.31030425
C       22.73952327      -3.58622774      20.01576786      -0.09645834       0.00572398       0.66716483
C       22.19286726      -4.85393469      20.18353087      -0.01249809      -0.15994291      -0.17815986
C       21.70372039      -5.19664198      21.42547484      -0.13713850      -0.14766420       0.11040137
C       21.73540751      -4.28950484      22.49627811       0.11522297       0.27878839       0.13758195
C       22.24319402      -3.01753515      22.32442256      -0.04964993      -0.15159704      -0.11043981
F       15.91816038      -8.57480595      27.01769320      -0.08238710      -0.12181402       0.01893734
H       28.30327471      -1.25794337      17.38586939       0.02118926       0.04477323       0.01225020
H       27.88717395      -0.76299710      19.03148088       0.07269217       0.02410364       0.04566799
H       28.53571092      -2.38002482      18.74238324       0.04247016      -0.02040823       0.04700611
H       26.09584502      -2.56875885      19.04352421       0.07091041       0.13834433      -0.23955283
H       28.02096808      -4.29541004      17.51941702       0.05949189      -0.04108963       0.01211420
H       26.49063481      -4.71826181      18.32515731       0.00703184      -0.04857184      -0.00116552
H       26.68924419      -4.99172649      16.57469410       0.04924420      -0.09487291       0.04475494
H       25.75449527       1.53593166      15.67834925      -0.03597542       0.13896779      -0.04171507
H       23.49465131       2.03903452      16.62737517      -0.02749282       0.04985592      -0.01895395
H       22.56598631       0.46305922      18.33110924      -0.02835870      -0.00297089       0.01594251
H       24.15880774      -3.16137112      17.03526199      -0.19842298      -0.20291939       0.19994889
H       23.34732372      -4.61254806      17.64489203       0.11241099       0.18244218      -0.01386682
H       21.97241253      -2.02926707      16.74469776      -0.01795621       0.04690326      -0.00482007
H       21.96341125      -3.57083489      15.88676079      -0.05792542      -0.00801850      -0.11141561
H       21.13560642      -3.42191505      17.44301416      -0.06303062       0.00986277      -0.02640127
H       23.65584814       0.62850407      20.69177322      -0.06277154       0.03274101       0.11298247
H       22.77697911      -0.08434037      22.05458456      -0.00933897       0.15095164      -0.08033332
H       25.87493941       1.22936215      23.56064103       0.06018765       0.05446857       0.04396558
H       25.13302500       1.96788841      22.13987745       0.00951127       0.08664645      -0.03763374
H       24.12002240       1.40135260      23.47054988      -0.02790854       0.07048184       0.03952982
H       27.05547948      -0.25221905      21.90484978       0.08769918       0.01950340       0.02365529
H       26.14349261      -1.42014101      20.95052421       0.04090018      -0.06454687      -0.08177505
H       26.12709011       0.28576371      20.50148019       0.02762694       0.01792419      -0.06454886
H       25.86912796      -1.30747743      23.82606261      -0.18929325       0.03375475      -0.14898674
H       24.71608012      -2.25383027      22.86231641       0.08728116       0.18371443       0.12486101
H       22.01383324      -0.78003990      25.80006333       0.11702038      -0.04381699       0.09826993
H       23.44534559      -2.35581875      27.80379764      -0.27807662       0.07873514      -0.09477894
H       20.94283879      -4.18685650      28.04370959      -0.21197774       0.20877220      -0.16159888
H       18.08345780      -3.55056648      27.85314332       0.12934625      -0.28690921       0.21245872
H       16.68425292      -4.60116890      29.04438547       0.16078837      -0.18700780       0.17292427
H       17.82848481      -6.10765230      31.42942359      -0.11915535       0.08586113      -0.09239174
H       14.97606482      -5.11071241      30.92027278      -0.05515127       0.00829444      -0.01816675
H       15.43477212      -6.80188517      30.76735664      -0.07587700      -0.09666777      -0.02524020
H       15.53637902      -6.00086629      32.33491284      -0.05936774      -0.00377301       0.03872865
H       17.18858163      -4.06456058      32.65491976      -0.02942439       0.04529753       0.08000689
H       18.36438879      -3.69772783      31.39306353      -0.02757755       0.05754876       0.04611441
H       16.66512946      -3.30598996      31.14942548      -0.09081385       0.08814794      -0.02580424
H       18.82498996      -7.40176237      25.97588312      -0.04245244      -0.11921187      -0.01905000
H       18.47812752      -8.75758182      27.05042717       0.01126953       0.10825650       0.03729072
H       17.47619586     -10.05016741      25.21687525       0.08973347       0.04332008      -0.06425524
H       19.11148230      -9.51006923      24.74826529      -0.24513458       0.00365763       0.04896790
H       15.24276520      -3.53070286      19.18874508      -0.01966553       0.07089857      -0.04708802
H       14.81002050      -2.66404467      20.65982579       0.02349394       0.03543669      -0.09033568
H       16.38785428      -2.37032816      19.90999339      -0.05246447      -0.03636218      -0.02975358
H       16.94779812      -4.51081524      22.85147163      -0.02339983       0.10911299       0.02206155
H       17.38036367      -2.94416294      22.13295326      -0.04705829      -0.05370788       0.01947736
H       15.73403173      -3.23407832      22.72744056       0.06831497       0.02005028       0.01834487
H       18.90622429      -3.94872556      20.62159571       0.02269608      -0.01626863      -0.04747117
H       19.04973959      -5.18086441      19.37591515       0.04510219       0.04059969      -0.01157367
H       18.15450350      -3.69542510      19.03430262       0.00320008       0.05420917      -0.04699610
H       16.32022892      -5.17110042      18.25414689      -0.03330276       0.02962136      -0.06117314
H       16.98666903      -6.69974304      18.82259914      -0.03033201       0.06670256      -0.04067883
H       15.40957711      -6.15698274      19.41419282      -0.03227719      -0.02105551       0.00969059
H       15.78608715      -7.67813047      23.10253449       0.01633533      -0.15311755       0.17425712
H       15.59641403      -9.01314325      24.26907902       0.03909443       0.10730439      -0.13318672
H       15.03751671      -6.87713039      25.37747249       0.11546204       0.07532776       0.03315662
H       16.57524592      -6.17753830      24.86712896      -0.10544123      -0.14616413       0.00427938
H       17.20254730      -8.67015348      28.79108488       0.01539311       0.10339657       0.04797305
H       18.71246411      -7.84972065      29.29296096      -0.13495941      -0.08591808       0.08223255
H       17.29319936      -7.85716127      30.34350258       0.01024323      -0.03542998      -0.09246144
H       19.50611488      -2.39743799      26.00861377       0.01342558       0.06390083      -0.05502430
H       21.15411501      -3.05845867      25.89422038      -0.24456721       0.07749631       0.05144850
H       18.50004690      -4.54600565      25.69704528       0.28274966       0.09374562      -0.09842688
H       19.59730301      -3.42531441      23.65690499      -0.03677706      -0.09334816       0.01661938
H       19.26779191      -5.17240596      23.50622480       0.08118418       0.21878517       0.08526804
H       21.09384359      -6.75143074      23.80394293       0.13697546       0.15859131       0.08109521
H       22.73288774      -6.09823054      24.07521321      -0.06251354      -0.01311080       0.03562937
H       22.07485359      -5.23061840      26.27171069      -0.03903770      -0.09315536      -0.01594819
H       21.62760945      -6.95733486      26.19769583       0.05815900       0.12280187      -0.03608596
H       21.29375674      -0.13124558      29.76164117       0.19882052      -0.05858826      -0.09701569
H       23.00371530      -0.61775729      29.63906906      -0.06834188       0.03487189      -0.02350470
H       22.74044097       1.62881999      28.63550470      -0.05141450       0.06030331      -0.01997785
H       21.44505393       1.03297716      27.58528495      -0.01047143       0.04225071       0.06246253
H       24.36089391       0.10419176      27.55481099      -0.03536884      -0.01129989      -0.07031394
H       23.56144703       1.07000602      26.30325533       0.06483994      -0.02356891       0.01386422
H       22.14921473      -5.56354392      19.37080346       0.01460038      -0.01472152      -0.03186081
H       21.27886464      -6.17833355      21.57941772      -0.00246564      -0.01657049       0.00865415
H       22.23476236      -2.33063257      23.15538062       0.05122107      -0.03183418       0.03648200
