151
Properties=species:S:1:pos:R:3:MACE_forces:R:3 energy:=T -221.337021097383=T gnorm:=T 0.003987194844=T xtb:=T 6.7.1=T (edcfbbe)=T MACE_energy=-90873.36091106903 pbc="F F F"
C       27.35797093      -0.66415856      17.71287071      -0.20748886      -0.34121833      -0.06783455
N       24.99379366       0.44051396      16.69304766       0.29071435      -0.01877531      -0.15918285
O       25.92297495      -2.40539933      16.73194829       0.04089314       0.17458720       0.00677050
C       26.04170016      -1.43980767      17.77506602       0.12710478      -0.00666472       0.13793443
N       23.18873293      -2.94930763      19.06070915       0.27352548      -0.02226183      -0.06440555
O       24.19329318      -1.13256580      24.41362992      -0.26841426       0.56846910      -0.46778829
C       26.77551183      -3.52134614      16.86835373      -0.08771742       0.13041041       0.03985370
N       22.99644490      -2.51374864      27.45945639       0.44821760      -0.21819384       0.01427264
O       19.43898272      -8.32726069      23.26583726      -0.69852231       0.25494788       0.04025235
C       24.86505440      -0.49640123      17.62212988      -0.15329023      -0.31923183       0.28532626
N       22.23586732      -2.04678272      28.53595288       1.05670380       0.47908092       0.03894308
O       16.71755510      -4.83892842      26.82482936      -0.06882807      -0.44123531       0.15126160
C       24.01475277       1.30481461      16.50060452      -0.17191005       0.16007257      -0.02167123
N       19.04464470      -3.82424646      28.34925594       0.28234570       0.49171779      -0.54583972
O       19.39393583      -5.56262670      29.74770529      -0.21957390       0.19244767      -0.01928404
C       22.84745314       1.30539631      17.24941217       0.04596823      -0.04317680       0.02370839
N       16.68911646      -6.04810544      28.71403777      -0.24030746       0.15971489       0.43180553
O       20.26072794      -5.91687701      26.23982823       0.10148871       0.12619833      -0.01563463
C       22.70516092       0.33189723      18.22019584       0.10625054       0.00979250      -0.11878604
N       17.30388311      -8.40155600      24.05088724      -0.22895585      -0.26998570       0.10681459
O       20.32630283      -2.01096771      29.70614287       0.40763869      -0.06439468      -0.46733381
C       23.71691494      -0.61016137      18.41528114      -0.02536374       0.32939535      -0.23680266
N       17.73638428      -5.55467215      19.07730714      -0.07422139      -0.06816374      -0.02143675
O       25.07169212      -2.82243768      25.59965107      -0.42297747       0.43531860       0.01018792
C       23.48000872      -1.65241368      19.42464395       0.07975129       0.23535447       0.41977645
N       21.54562719      -4.84297096      23.99073788       0.01992861       0.01552656      -0.16268305
C       23.06440218      -3.43650863      17.70837733      -0.24050124       0.02033955      -0.42392498
C       21.66370409      -3.18878531      17.15215841       0.12522555      -0.09948705       0.12167530
C       23.32302806      -1.49330527      20.78343075       0.05997801       0.17476679      -0.32436930
C       23.59055155      -0.27196018      21.60052197       0.13141174      -0.09867561      -0.03805819
C       24.97505640      -0.23925138      22.29227541      -0.07530507      -0.00275963       0.28974791
C       25.14083714       1.11732377      22.98204331      -0.05899634      -0.21633451      -0.05219638
C       26.09054241      -0.43365780      21.26694009      -0.17036844      -0.12842431       0.20464524
C       25.11005752      -1.35695166      23.33409248       0.43045812      -0.22043601      -0.34851869
C       24.29245358      -1.90330451      25.47832162       0.26610349      -0.90020134       0.65229080
C       23.36354626      -1.41303449      26.57417464       0.25447866       0.10624646      -0.05438438
C       20.99056208      -2.47865691      28.78558616      -1.15449706      -0.30680459       0.54261830
C       20.42132237      -3.63346691      27.94719423      -0.04213226      -0.12238356       0.13881749
C       18.63999769      -4.76104778      29.20745967      -0.02438317      -0.31679943       0.27573607
C       17.11605927      -4.82055171      29.40169664       0.25616025       0.25327168       0.04558860
C       16.72631458      -4.70235590      30.87707629      -0.03536751       0.06258003      -0.13800414
C       15.20702721      -4.67352443      31.03515704       0.26342981      -0.18209512      -0.04202090
C       17.32888796      -3.40774767      31.42540812       0.17896446      -0.24746829      -0.04370784
C       16.60173745      -5.93423516      27.38337875      -0.33892375       0.47362319      -0.74555589
C       16.39479984      -7.17084358      26.48507805       0.37370587       0.20016543      -0.26293210
C       17.71097985      -7.95521687      26.40602372      -0.18129258      -0.07482626      -0.11236463
C       17.67781451      -9.01795121      25.30213990       0.39713658      -0.08584254       0.34723169
C       18.25866489      -7.97382762      23.20264205       1.01880303      -0.54479065       0.05730998
C       17.82510207      -7.05060833      22.18644785       0.17550180       0.79688120      -0.81048104
C       17.67530361      -6.18321868      21.36441546      -0.18153309      -0.78564639       0.58364639
C       17.39337574      -5.09785791      20.42984743      -0.04381021       0.32194768       0.03737317
C       19.09941403      -6.02596300      18.94958081       0.20517161      -0.01111056      -0.00127148
C       17.41769148      -4.62027333      18.01713061      -0.01215891      -0.02397528       0.07008206
C       15.88790053      -4.80000591      20.52742873       0.08881797      -0.01164084       0.00510893
C       18.19850192      -3.87387527      20.92061200       0.02817626      -0.09701391      -0.14257077
C       15.97132080      -7.84482394      24.08394759      -0.29768608       0.34886616       0.11935397
C       15.91835911      -6.70855286      25.10403674       0.04709266      -0.13672975       0.05586317
C       16.77174232      -7.28186605      29.46664795       0.20937250      -0.35057324       0.11609644
C       20.48367407      -3.46641655      26.42838248       0.02090264      -0.62082166       0.00144779
C       19.83997710      -4.66620947      25.71096237      -0.36437082       0.36679366      -0.27046182
C       20.13162855      -4.59761248      24.20766224      -0.30867801      -0.20730794       0.29896178
C       21.89271729      -6.17433466      24.45065156      -0.09636336      -0.28975180       0.26105421
C       21.61858816      -6.21826221      25.95313472       0.16953758      -0.18076636      -0.16935225
C       22.85035362      -1.01148156      29.35724615      -0.23819582       0.21288822       0.08009091
C       23.22072134       0.18620867      28.48547550       0.20559111      -0.22908688       0.08453861
C       24.09429382      -0.28173013      27.32401572      -0.37045172       0.12391323      -0.04435911
C       22.86200995      -2.74696909      21.28188109      -0.23064644      -0.30134920      -0.28920943
C       22.79599384      -3.63281700      20.17774659      -0.03696615      -0.02801979       0.63391707
C       22.37343740      -4.94819503      20.34077341       0.01539709      -0.15170350      -0.17757975
C       21.98016833      -5.35759239      21.59699660      -0.12972183      -0.14800443       0.11138312
C       21.99181665      -4.47538021      22.68904163       0.11499327       0.18776001       0.21322217
C       22.43339675      -3.17673904      22.53592718      -0.03350451      -0.15429117      -0.16080899
F       15.39277758      -8.00373534      27.00892703      -0.13293837      -0.13370476       0.05768996
H       28.19842585      -1.30917025      17.95191320       0.05393668      -0.01081967       0.03550963
H       27.47999775      -0.25581994      16.71415334       0.01462713       0.03449770       0.02699391
H       27.33037634       0.15333138      18.42595311       0.07383831       0.05316355       0.04874251
H       25.95740072      -1.96326220      18.74079965      -0.01377253       0.13703005      -0.24229498
H       26.67836284      -3.96518269      17.86599660       0.03131844      -0.01869736      -0.06972352
H       26.45104592      -4.23685708      16.11638924       0.10703923      -0.04608301       0.06397324
H       27.82078052      -3.25648581      16.69090359      -0.02998357      -0.05875683       0.01851709
H       24.18244870       2.03074501      15.71711278      -0.08275057       0.08448678      -0.01366268
H       22.07685154       2.03758096      17.07137741      -0.02939157       0.04131679      -0.00606401
H       21.81146399       0.27904819      18.82492926      -0.00870250      -0.01916117       0.02407122
H       23.80689869      -2.93910595      17.08125750      -0.13276870      -0.24745923       0.20027366
H       23.28048550      -4.50705441      17.71607594       0.08369189       0.16463839      -0.02586007
H       21.56684555      -3.65118617      16.17479483      -0.06687407      -0.00310219      -0.10818303
H       20.91420950      -3.61300093      17.81671114      -0.04488099       0.00899359      -0.03974034
H       21.47766600      -2.12164428      17.05402270      -0.01225476       0.00808152      -0.01227825
H       23.52469529       0.60763098      20.95732927      -0.04650075       0.03239237       0.12187896
H       22.82600558      -0.19318580      22.37514998      -0.02496082       0.15389839      -0.06404010
H       24.33744015       1.27952619      23.69521695      -0.01522156       0.08005887       0.03509223
H       26.08954025       1.16088421      23.51196361       0.07086831       0.04904327       0.05348713
H       25.12071969       1.91584235      22.24584337       0.00815595       0.09322223      -0.04873499
H       25.97123855       0.27024598      20.44807074       0.01185601       0.04047826      -0.07946761
H       27.06359691      -0.27618546      21.72415463       0.09578870       0.04010187       0.01865697
H       26.06077776      -1.44253898      20.86517965       0.03029179      -0.02024934      -0.07382409
H       26.12471789      -1.37552497      23.74683552      -0.18296390       0.02276272      -0.10115593
H       24.90502205      -2.33816130      22.89576020       0.08016313       0.21037293       0.11160764
H       22.44862742      -1.02186752      26.11958968       0.12955900      -0.06663887       0.07979254
H       23.84420107      -2.97611887      27.79265939      -0.28055994       0.09697309      -0.04579384
H       20.95761307      -4.54181633      28.24996439      -0.12399123       0.24199204      -0.15865188
H       18.36266903      -3.20850075      27.93304222       0.02764624      -0.30999514       0.17272626
H       16.65133297      -3.99220279      28.85795876       0.10388647      -0.18546114       0.20052562
H       17.15737095      -5.53762397      31.43387378      -0.05204002       0.07864428      -0.09566591
H       14.94440710      -4.63355678      32.08839808      -0.08089378       0.00985513       0.05511499
H       14.80298002      -3.79032486      30.54610263      -0.05730456       0.05846256      -0.02678607
H       14.73743073      -5.54751210      30.59280150      -0.09322199      -0.05107624      -0.01403217
H       17.07876389      -3.29659131      32.47640829      -0.02471392       0.04660012       0.07422946
H       18.41251829      -3.40741472      31.32665580      -0.02293017       0.07602639       0.05903933
H       16.94389616      -2.54640628      30.88452992      -0.04955271       0.08299934      -0.02626675
H       18.51787102      -7.24606743      26.20896977      -0.06599421      -0.11367585      -0.00202557
H       17.91798752      -8.43653539      27.36010280       0.00844580       0.10836412      -0.00995867
H       16.94754310      -9.79454269      25.54232979       0.11591707       0.03893057      -0.06154346
H       18.66709791      -9.46327466      25.18849875      -0.24318089       0.02437609       0.02425177
H       19.32622748      -6.72577620      19.75239679       0.06755926       0.03845987      -0.10067795
H       19.19591596      -6.54621488      17.99708465       0.05300494       0.01406418       0.03366896
H       19.84185568      -5.21411191      18.97862175      -0.07883739      -0.11612225       0.00802110
H       16.36605535      -4.35348344      18.05729423       0.00435030       0.07335759      -0.07586172
H       18.02639977      -3.70422449      18.04452974      -0.04645134      -0.02634966      -0.02076763
H       17.60448150      -5.11948089      17.06716388      -0.02848630       0.07958818       0.00370673
H       15.32534863      -5.58477617      20.02990201      -0.01931289      -0.01741942      -0.00690765
H       15.59405020      -4.76513092      21.57388022      -0.01575149       0.05358913      -0.02760310
H       15.65328632      -3.84108328      20.07567201      -0.03002850       0.04465745      -0.03821665
H       19.26225488      -4.10048077      20.96847369      -0.01236671       0.05256721       0.00630223
H       18.04000037      -3.03152425      20.25277570      -0.00113914       0.07950365      -0.01954635
H       17.86440910      -3.59750596      21.91737519       0.02325170       0.04207140       0.02091239
H       15.70158403      -7.47656999      23.09416025      -0.02391411      -0.13139263       0.19341911
H       15.28093662      -8.64022962      24.37633854       0.04799975       0.07681873      -0.14464743
H       14.90211405      -6.32434804      25.19593340       0.09673979       0.05558984       0.03358088
H       16.56632814      -5.89263481      24.78201503      -0.13095479      -0.12296722       0.01044197
H       16.39339178      -8.11819743      28.89328197      -0.01398467       0.11599640       0.02680507
H       17.81075053      -7.45984429      29.75123682      -0.12795518      -0.03760547       0.05641654
H       16.16929665      -7.19382505      30.36616201       0.01034369      -0.06306961      -0.02569238
H       19.94241881      -2.56735139      26.13497825      -0.00299233       0.08322069      -0.05965291
H       21.51916060      -3.38728392      26.10756252      -0.29307967       0.10073273       0.04163047
H       18.75655549      -4.65878462      25.87560877       0.31359155       0.08151545      -0.10193131
H       19.87843958      -3.60806382      23.82535728      -0.02657173      -0.07583716       0.02043535
H       19.51172385      -5.34824920      23.68285091       0.08512591       0.22408749       0.06983045
H       21.30305753      -6.96648936      23.95712699       0.14336499       0.18216739       0.09481114
H       22.95466345      -6.34591158      24.26590115      -0.07909579      -0.01886016       0.03472539
H       22.28120539      -5.51042407      26.46483050      -0.04332357      -0.09749333      -0.03870519
H       21.77974705      -7.22151092      26.35026833       0.06302090       0.13882954      -0.05812339
H       22.13041368      -0.73923937      30.12840205       0.19603003      -0.07720947      -0.11365358
H       23.74509502      -1.43150439      29.82886807      -0.05900055       0.04220957      -0.01531489
H       23.75343767       0.92176939      29.08639277      -0.05605603       0.04857825      -0.00867554
H       22.31005540       0.64591234      28.09943721      -0.00028797       0.03131230       0.05622341
H       25.04527803      -0.66607688      27.70133443      -0.02442156       0.00349273      -0.06696404
H       24.29960861       0.53902966      26.63820213       0.06011715      -0.03033800       0.00644675
H       22.33465494      -5.63861332      19.51133847      -0.00302254       0.00390987      -0.02653186
H       21.62792240      -6.36848269      21.74349985      -0.00551255       0.00488535      -0.00826346
H       22.41960668      -2.51211316      23.38449332       0.04584916      -0.01407666       0.05004548
