151
 energy: -221.336843495587 gnorm: 0.004556483805 xtb: 6.7.1 (edcfbbe)
C           27.63391478370611       -1.65501369903841       17.85508440653704
N           25.58489881238841       -0.17932307563381       16.63363931760552
O           25.97602871683612       -3.12837484296439       16.78955711659966
C           26.19780201122128       -2.17744788292459       17.82887391600028
N           23.23996542829431       -3.13327564570906       19.04236193827775
O           23.98100426029932       -0.85462592492544       24.29048114816612
C           26.65912059363303       -4.35187575522642       16.95356002665177
N           22.61336948162832       -1.83670083129479       27.41270535237600
O           19.73680432998442       -8.12018664390151       22.84712657134379
C           25.22882809314569       -1.03768127291712       17.57874452741640
N           21.67795685308223       -1.33845574529664       28.32411237996561
O           16.75175710497620       -5.24586418564146       26.72988476972100
C           24.80742353581410        0.85373003705204       16.36623299273439
N           18.98307641001480       -3.80901645375151       28.32303670904755
O           19.72930542071361       -5.47270187910770       29.65491490245169
C           23.62549718696186        1.10783510348543       17.04498079368070
N           17.19421770979578       -6.53624576645131       28.51048191229265
O           20.27250795982723       -5.74368141239199       26.34117609954023
C           23.24032096220803        0.21310337084947       18.02550481515755
N           17.65824365432866       -8.53025990844151       23.66428871121569
O           19.67608819954405       -1.48703686711385       29.32632445702936
C           24.03796098319512       -0.89728563656215       18.30440925412916
N           16.42851957694482       -3.95638694258450       21.17213889213216
O           24.90103841672113       -2.13758982311303       25.88275576287809
C           23.59037836486171       -1.83404230384964       19.34000293320935
N           21.51408608282789       -4.71394525962337       24.04942960803917
C           23.02483844367296       -3.65599346441840       17.71551128782716
C           21.61954856142050       -3.31782863704879       17.21980521460015
C           23.38745962264145       -1.57723729646359       20.67780815121597
C           23.65130695616989       -0.29921624679653       21.40695602140147
C           24.99605611483929       -0.22935005109998       22.16855884134290
C           25.18592156597581        1.19826710302443       22.68802621799457
C           26.15525002128019       -0.59645324974418       21.24338010964870
C           25.01037281792824       -1.20559053543576       23.35141445019756
C           24.03800123873937       -1.37948907117565       25.49719737535246
C           22.91578996221025       -0.85306028924062       26.37663224576038
C           20.51291873946328       -1.96045569318558       28.56398179605218
C           20.27348312976935       -3.31814696171219       27.89294086397086
C           18.80855917119116       -4.86122374927438       29.12541308301730
C           17.34228262312983       -5.29382504635721       29.27839280627823
C           16.91214054898162       -5.37345676585866       30.74623910586236
C           15.46863008660172       -5.86001794666058       30.85650867421268
C           17.04520578455356       -3.97791628660499       31.35707233269998
C           16.93235179996996       -6.36935507743264       27.20821957842508
C           16.82636864040566       -7.58449042964738       26.25674967076039
C           18.19956079979415       -8.21964904219100       26.01179676606587
C           18.16692464162741       -9.20333921239807       24.83726903566695
C           18.52305210012658       -7.89979977282440       22.84606905486628
C           17.96990854148900       -6.91182369840546       21.96012208376082
C           17.72400540082571       -5.94078387651600       21.29029080898498
C           17.42037789452516       -4.77723858612758       20.46304617370756
C           15.99294621818006       -2.77398089718796       20.45713063559707
C           16.79799841806977       -3.60849401076259       22.52961648681057
C           18.76378629293079       -4.07080805182151       20.18138646973737
C           16.82207135696920       -5.29913436126356       19.14537732853265
C           16.27933429471191       -8.12964292761640       23.82365407648144
C           16.16719136254926       -7.10983630496466       24.95547862983200
C           17.67627236768058       -7.75857190049061       29.11892272715359
C           20.31889257808314       -3.26957810521071       26.36131763628737
C           19.77476125472326       -4.56195835319342       25.72842851070912
C           20.08339199441343       -4.56598918924988       24.22836379853573
C           21.94098110436685       -5.99386237650302       24.58588942789779
C           21.64980237966667       -5.97247792316314       26.08538085507703
C           22.01440981823198       -0.08271713928289       28.98212589211292
C           22.28484386034544        0.99374926729595       27.93413869134381
C           23.35764176734127        0.50169663343751       26.96457485931700
C           22.85952010813563       -2.77826084893283       21.23739735562795
C           22.78017193809162       -3.72466758160840       20.18527236525064
C           22.30414071429846       -5.01254350203881       20.40703372077238
C           21.90019730773303       -5.34827551818846       21.68016929291237
C           21.94849863145349       -4.41320294617224       22.72448115619394
C           22.41315844263362       -3.13217375199495       22.50866892050890
F           15.98161375363791       -8.54890356411203       26.83384666505738
H           27.88191358980500       -1.25566682448468       16.87634037261697
H           27.71546568358043       -0.86376501165843       18.59338895335373
H           28.32782123159939       -2.44908020417646       18.11501194975947
H           25.95654246279742       -2.65487530690817       18.79356508927399
H           27.72805815948292       -4.25128320256657       16.74021304502669
H           26.52719784211026       -4.74089078721686       17.97175538339625
H           26.21220062074639       -5.04274226049832       16.23935485737622
H           25.15665111539555        1.50526675335473       15.57753698593173
H           23.02706554710233        1.97202569464408       16.80734191363339
H           22.31863671917278        0.35213731141296       18.57158242881646
H           23.77391420736366       -3.24017753565624       17.03991434037053
H           23.15965398546072       -4.73943001774679       17.75244260681518
H           21.51588303519514       -2.24338450101672       17.08622553553034
H           21.43180721519006       -3.80786537525606       16.26970031131807
H           20.87928339673649       -3.65159363304138       17.94332133013458
H           23.64261402362822        0.52262833371936       20.68937765586574
H           22.84933258120780       -0.13638449965751       22.12883523363729
H           25.25263456822983        1.89392329365376       21.85600477679988
H           24.34849049193591        1.48685526773706       23.31735114463553
H           26.10054534093320        1.27233625384816       23.27177453541859
H           27.10665898563966       -0.46674447005220       21.75251790440383
H           26.07453439668969       -1.63138904336705       20.92285705638283
H           26.14212293967197        0.03969983885457       20.36221218694313
H           25.97413769634925       -1.17702120192155       23.86910829489860
H           24.83190639838584       -2.23017027499366       23.01382699071211
H           22.01787430967419       -0.71169344360041       25.76719861669248
H           23.47900969497904       -2.09516912624600       27.88942425333224
H           21.01754764967393       -4.02463436421615       28.27789104711595
H           18.17800023309214       -3.33560530702856       27.94179556446421
H           16.70224414881991       -4.56045575583077       28.77857075871215
H           17.58940765635107       -6.04042491355153       31.28647952541647
H           15.33641771385146       -6.83509245124689       30.39631740085210
H           15.17631552131190       -5.92610074087478       31.90044928297900
H           14.80499992780788       -5.15882683847043       30.35571936223696
H           16.81600997148406       -4.01333153378479       32.41842448493521
H           18.05708328360591       -3.59613053353315       31.23461733047086
H           16.36010385238029       -3.28266951968690       30.87738771242144
H           18.91144882315895       -7.41673803334510       25.80990725265879
H           18.53410075750681       -8.74794698837267       26.90084109664393
H           17.51307051234246      -10.04769632135327       25.06666388084841
H           19.17443900745658       -9.56410404332316       24.62543323597949
H           16.77757188989587       -2.00746706454112       20.37118456202237
H           15.64143494501019       -3.04058146987153       19.46514093482537
H           15.15973579083430       -2.34119988713598       21.00936251716622
H           15.90552539313100       -3.26883104911899       23.05414224443851
H           17.18623150205527       -4.48286945704633       23.04730242968494
H           17.55352082490563       -2.80952674600446       22.58131012092455
H           19.43251274413933       -4.75954096763762       19.67169073038340
H           18.60706852949770       -3.19731537905740       19.55377279864937
H           19.24657272736309       -3.76599935865879       21.10816428843802
H           17.39455956351014       -6.15631404621077       18.79993980535109
H           15.79241001643141       -5.60544089181711       19.30615670188232
H           16.85785170627391       -4.53133027121362       18.37795202391001
H           15.91091270895428       -7.69244822432396       22.89532861964333
H           15.69609579215451       -9.02303609287998       24.06134904809356
H           15.12085167182628       -6.88261493848538       25.15987493512445
H           16.66010038853667       -6.18299125522658       24.65956436498814
H           17.24265088163519       -8.62680519919124       28.63691234520230
H           18.76763711711336       -7.79155893281053       29.06772401085290
H           17.38675508262889       -7.77364849998375       30.16469149402394
H           19.70369148732483       -2.44388742028158       26.00341073513827
H           21.34544778616601       -3.12477690531998       26.03267497707089
H           18.69152333238915       -4.62179130335443       25.87797418353175
H           19.76189672351181       -3.62250216910806       23.78545566492741
H           19.53063969656050       -5.38900551018253       23.73962477945664
H           21.41097508172226       -6.84399808816565       24.12309221058746
H           23.01325241043036       -6.10688492865228       24.41891298243434
H           22.25946487301000       -5.19659914438802       26.56286539281726
H           21.87132553812402       -6.93817999959237       26.54233226662814
H           21.17410455956057        0.18169977474627       29.62347576805934
H           22.90410974484295       -0.24471339519318       29.59981176446228
H           22.61310114570826        1.90623926429344       28.42931276365919
H           21.36451095354181        1.20615282791385       27.38896371622927
H           24.30543933622952        0.36775611467843       27.49160260022547
H           23.50739619482275        1.21817389983158       26.15805183966122
H           22.24365691898039       -5.73835518710610       19.61059592474929
H           21.51285226894441       -6.33770891244161       21.87669568509478
H           22.41154826980751       -2.42843938535283       23.32520051525094
