151
Properties=species:S:1:pos:R:3:MACE_forces:R:3 energy:=T -221.336662627659=T gnorm:=T 0.007116717600=T xtb:=T 6.7.1=T (edcfbbe)=T MACE_energy=-90873.52360541828 pbc="F F F"
C       27.60903509      -1.64327646      17.79448212      -0.32516129      -0.20621846      -0.12971544
N       25.65655117       0.12613040      16.82011052       0.27965699      -0.11299005      -0.07812558
O       25.77121268      -2.86392409      16.70963258       0.06245900       0.17473602       0.01013235
C       26.12871133      -2.02444257      17.80617025       0.15393575      -0.04098866       0.15307382
N       23.07270762      -2.83416349      19.05337858       0.34829331       0.10353676      -0.06357160
O       24.22393442      -1.04118109      24.40881139      -0.09883211       0.46994119      -0.51689069
C       26.26817425      -4.18182869      16.79097745      -0.03159801       0.10734782       0.06118563
N       22.70621159      -1.97772612      27.49112377       0.36708332      -0.17470248       0.14994536
O       19.66069570      -7.88920006      22.77035649      -0.73817851       0.18987501       0.11679828
C       25.25472627      -0.79051792      17.68956246      -0.21992262      -0.21184366       0.21654811
N       21.79053788      -1.41146611      28.38396293       0.95160559       0.61304899      -0.04426320
O       16.78642885      -5.11722008      27.01603119       0.00795164      -0.44021730       0.07557011
C       24.94046118       1.22409103      16.65676689      -0.09674954       0.16845636      -0.07605021
N       19.03041620      -3.80577697      28.43451099       0.13238985       0.61507006      -0.47469747
O       19.86822724      -5.40952925      29.78839948      -0.31999267       0.12693526      -0.04456810
C       23.77721903       1.48231006      17.36525377      -0.00253773      -0.07338376       0.05101981
N       17.27849688      -6.48737877      28.71891344      -0.19410493      -0.04139156       0.43410208
O       20.34405701      -5.68763863      26.36129946       0.10399417       0.11903880      -0.03139901
C       23.35194214       0.53282920      18.27673540       0.12082746       0.01839385      -0.16290269
N       17.64553330      -8.24227986      23.75833927      -0.15806436      -0.20130579       0.07045264
O       19.76832736      -1.43837194      29.35903561       0.41675820      -0.08181413      -0.44273782
C       24.08736499      -0.63962222      18.44863429       0.05462640       0.23833461      -0.16441188
N       15.77688571      -5.39048196      19.53873742      -0.02194530      -0.11703107       0.03401695
O       24.94153012      -2.49649947      25.95761118      -0.35453243       0.41523232      -0.15688482
C       23.60465829      -1.61952040      19.42983681       0.07798152       0.19176854       0.35588361
N       21.41938317      -4.57569955      24.03193318       0.07118577      -0.09941581      -0.30291836
C       22.78684323      -3.24229360      17.70031864      -0.28184207       0.07091656      -0.47067072
C       21.39676511      -2.77814021      17.26884336       0.16751647      -0.13752891       0.09560374
C       23.50961755      -1.45642475      20.79289451       0.05532269       0.13153420      -0.28391684
C       23.96045428      -0.28393662      21.60291692       0.10479596      -0.05980246      -0.05164108
C       25.31914861      -0.44388339      22.32534475      -0.07749169       0.02155457       0.27502560
C       25.72277859       0.91644196      22.90069484      -0.12641514      -0.21254148      -0.02197639
C       26.39104540      -0.92768471      21.35052443      -0.18289035      -0.04664127       0.22946272
C       25.22624500      -1.46056269      23.47036654       0.47318728      -0.24452287      -0.30380601
C       24.18120010      -1.62963336      25.58624926       0.12462452      -0.80791393       0.83538211
C       23.08063477      -1.02925578      26.44701085       0.21105752       0.07668984      -0.10683233
C       20.58795672      -1.96328941      28.61213934      -1.17324829      -0.38714158       0.52229937
C       20.29801001      -3.31080090      27.94259332       0.02516846      -0.21463287       0.13670744
C       18.91303833      -4.82605603      29.28734708       0.12306227      -0.37218328       0.33675396
C       17.46276419      -5.27623824      29.53288466       0.12057980       0.34038369       0.05901767
C       17.14408588      -5.43138151      31.02185336      -0.01042887       0.03692855      -0.14334524
C       15.68871926      -5.85536258      31.22009860       0.25906837      -0.06816527      -0.07824956
C       17.38896994      -4.08733946      31.70985896       0.19262712      -0.18641864      -0.09102553
C       16.98239709      -6.26263750      27.43500285      -0.50829839       0.54044498      -0.70045579
C       16.87522112      -7.42240308      26.41572835       0.14450019       0.21197288      -0.20306433
C       18.25515433      -8.00533398      26.10126907      -0.09825067      -0.00895050      -0.13587191
C       18.21339362      -8.94008988      24.88717849       0.42944920      -0.09128607       0.32800117
C       18.44770004      -7.66738507      22.84377366       1.08994794      -0.53740194      -0.08085768
C       17.81192859      -6.76740289      21.91759931      -0.03977592       0.86801644      -0.86443295
C       17.46671942      -5.94672566      21.10612077       0.10391644      -0.74051588       0.82472219
C       17.00324692      -4.91054403      20.18716178       0.06825013       0.36588886      -0.01859428
C       15.12467300      -4.43681367      18.66465710       0.02723283       0.00229094       0.06060016
C       15.91903364      -6.66826599      18.86819736       0.01524476      -0.09423100      -0.00661900
C       16.69266613      -3.67981748      21.05784799       0.07174018      -0.02371322      -0.09099746
C       18.16452026      -4.58239508      19.22555726      -0.11990266      -0.04421418       0.05345316
C       16.27099502      -7.86073916      23.97951041      -0.42154553       0.25717147       0.16225007
C       16.18915991      -6.88576342      25.15358322       0.10120872      -0.08374908       0.03034069
C       17.72742033      -7.74367265      29.28395260       0.25064138      -0.36379210       0.07379927
C       20.27075304      -3.22411026      26.41128839       0.09560180      -0.47233873       0.12192141
C       19.75714011      -4.52984044      25.78195611      -0.40459435       0.34728801      -0.25422935
C       19.98975625      -4.51790875      24.26720669      -0.30093707      -0.24109608       0.27021628
C       21.95348015      -5.83138111      24.53441537      -0.08292508      -0.23831693       0.26247306
C       21.71845245      -5.85028099      26.04408403       0.19579872      -0.07888122      -0.12190259
C       22.18583412      -0.16204870      29.02061999      -0.22748457       0.14147585      -0.06344827
C       22.51093007       0.87719458      27.95016386       0.16895492      -0.16936814       0.16852325
C       23.57856683       0.31395621      27.01450041      -0.37936032       0.07113868      -0.07741891
C       22.85981007      -2.62482356      21.28709140      -0.21883606      -0.24886699      -0.42538240
C       22.59815736      -3.45980783      20.17178236      -0.07829673      -0.14298329       0.71788875
C       21.95220083      -4.68324720      20.32447643      -0.01156892      -0.08403882      -0.14204986
C       21.57203601      -5.06744572      21.59303958      -0.15295636      -0.17768965       0.07667093
C       21.80681165      -4.23824374      22.69931915       0.12012682       0.26480803       0.19240839
C       22.43289743      -3.01952477      22.55031528      -0.07145395      -0.13939774      -0.04907985
F       16.05882037      -8.43740095      26.94595907      -0.04814514      -0.14108850       0.02773032
H       28.23136177      -2.51926546      17.95306696       0.05498576      -0.03743440       0.03226254
H       27.84942695      -1.19017739      16.83694769       0.04533939       0.00193172       0.05196667
H       27.80693428      -0.92790023      18.58671552       0.04882709       0.04409222       0.04558531
H       25.88379447      -2.55162485      18.74312547       0.03960042       0.14393390      -0.25681771
H       26.01588578      -4.63403315      17.75849862       0.02940115      -0.00131266      -0.10763363
H       25.77894695      -4.73302890      15.98940984       0.10775080      -0.07253010       0.09878065
H       27.35206631      -4.21663047      16.64607914      -0.08811420      -0.04424949       0.01955706
H       25.32591906       1.92371047      15.92736216      -0.07761316       0.10116509       0.00510457
H       23.22316027       2.39307612      17.20647547      -0.01794548       0.05991686      -0.01672893
H       22.44813560       0.68265157      18.84951786      -0.00589368      -0.02327411       0.02766186
H       23.54626081      -2.82502407      17.03624382      -0.16036394      -0.23812632       0.19995170
H       22.85003515      -4.33212407      17.65279204       0.10087168       0.15472404      -0.02739883
H       21.34197766      -1.69237317      17.28620804      -0.01795155       0.03868637      -0.01583929
H       21.18654587      -3.12262340      16.26102541      -0.06767146      -0.00338060      -0.09580561
H       20.64207946      -3.17658347      17.94332234      -0.05930165       0.01314718      -0.01899750
H       24.04280407       0.58216172      20.94394514      -0.03640320       0.03603459       0.13288837
H       23.20302458      -0.07155984      22.35930713       0.01599364       0.16367831      -0.09811615
H       24.95549641       1.28346855      23.57660547      -0.01348141       0.08707330       0.04138869
H       26.65743756       0.83461723      23.44888350       0.09456132       0.02781974       0.07067870
H       25.85713806       1.63809002      22.10095008       0.00017165       0.08521972      -0.07270880
H       27.36636115      -0.94237881      21.83000248       0.09758224       0.00836608      -0.00171053
H       26.16433634      -1.93113942      21.00105900       0.03506060      -0.03664461      -0.07804085
H       26.43387648      -0.26384820      20.49116071       0.04245114       0.01248268      -0.06483235
H       26.18261639      -1.54225902      23.99691145      -0.16491295       0.03787882      -0.12636763
H       24.95608108      -2.45297254      23.09721848       0.03964649       0.19918839       0.09453228
H       22.19948721      -0.85042505      25.82149057       0.16021728      -0.02619872       0.11269450
H       23.54394881      -2.29092111      27.98370835      -0.26600235       0.08017745      -0.11711118
H       21.05912389      -4.02719022      28.27240279      -0.20236657       0.17843157      -0.16454879
H       18.20008352      -3.37103210      28.06047823       0.07960550      -0.29466268       0.21335819
H       16.78178003      -4.52832577      29.11414170       0.19127860      -0.20226018       0.17969021
H       17.82627211      -6.16259877      31.46288235      -0.08911902       0.07474388      -0.07430413
H       15.49106455      -6.02170972      32.27524823      -0.06696170      -0.01258270       0.05376296
H       15.02444719      -5.06973517      30.86458014      -0.06159056       0.03085837      -0.00879040
H       15.45241504      -6.76483719      30.67419733      -0.06079565      -0.04727051       0.00066169
H       18.42340827      -3.77249719      31.58769420      -0.02121096       0.04725317       0.06315077
H       16.74802173      -3.31643548      31.28746413      -0.05356171       0.04160235      -0.00903429
H       17.17636497      -4.17130866      32.77189339      -0.00489520       0.05969969       0.06167691
H       18.93429946      -7.17416441      25.90196435      -0.07701732      -0.22109593       0.00836879
H       18.64769827      -8.55091614      26.95697388      -0.02936740       0.10560035       0.00403546
H       17.59664237      -9.81602282      25.10282389       0.07955929       0.04438796      -0.07870077
H       19.22478119      -9.25706498      24.62938855      -0.23332523       0.01136120       0.03667571
H       14.15460078      -4.85093052      18.39083019       0.02770813       0.08907771      -0.03974815
H       14.95757775      -3.49843829      19.18464792      -0.03285147       0.03029201      -0.08630762
H       15.68613113      -4.24492870      17.73817594      -0.02955096       0.05040670       0.04067057
H       16.44049983      -6.59367901      17.90216893      -0.00645531      -0.02864576       0.05697708
H       16.46173441      -7.36196895      19.50715024      -0.11552035      -0.01848422      -0.15986864
H       14.92208861      -7.06929564      18.68620906       0.07536426      -0.03287848      -0.03981725
H       16.60466573      -2.78765749      20.44472285      -0.04188255       0.06568140      -0.00870319
H       15.76725322      -3.84024606      21.60367296      -0.02034346      -0.01117722       0.01324823
H       17.49955667      -3.52710410      21.77053902       0.01432316       0.04293959      -0.04114047
H       18.42979834      -5.45262812      18.62986624       0.02688242       0.00912169      -0.02706328
H       17.88302648      -3.76690699      18.56418375       0.00282300       0.03743586      -0.05274177
H       19.03646862      -4.28449040      19.80453636       0.01063394       0.01194095      -0.03247357
H       15.86877335      -7.39178365      23.08112207       0.00899387      -0.18663669       0.19751036
H       15.70000158      -8.76635968      24.20379023       0.05145354       0.08254805      -0.14798742
H       15.14790301      -6.66716922      25.38958710       0.08834787       0.08837336       0.02106862
H       16.67950995      -5.94934788      24.88628635      -0.10882044      -0.12483772       0.01388482
H       18.81821058      -7.73262544      29.37916028      -0.19046778      -0.07207808       0.05209683
H       17.29046559      -7.86987864      30.27333773       0.08119845      -0.03325199      -0.13139501
H       17.40858190      -8.57938814      28.67011287       0.02266037       0.16563472       0.11496992
H       19.60871444      -2.41498621      26.09975840       0.02412433       0.04621534      -0.05373978
H       21.27591320      -3.03537527      26.04415692      -0.23625017       0.14003944       0.03294603
H       18.68706780      -4.63821953      25.98641872       0.36348320       0.05480195      -0.16213811
H       19.59100085      -3.59732112      23.83420944       0.03221169      -0.10035767       0.07323335
H       19.46241853      -5.37665418      23.80878116       0.10988511       0.28347341       0.10211237
H       21.47213466      -6.71139780      24.06763279       0.14740807       0.23324505       0.12830434
H       23.02736192      -5.86421426      24.33253565      -0.14848605      -0.01977789       0.04197488
H       22.31392716      -5.05629679      26.51162237      -0.04319741      -0.11349507      -0.01777269
H       21.99916751      -6.81390538      26.47267029       0.04404301       0.15507823      -0.05517028
H       21.35801143       0.15391055      29.65484466       0.20147526      -0.07975447      -0.09054882
H       23.06691541      -0.35418879      29.64194613      -0.05019663       0.03715671      -0.00811870
H       22.86480858       1.79190408      28.42398784      -0.04438934       0.02350112      -0.02805709
H       21.60674085       1.10572181      27.38394541       0.02729929       0.04084838       0.06677972
H       24.50818062       0.14864200      27.56521891      -0.01448903      -0.01633849      -0.07723309
H       23.77839564       1.00160924      26.19382515       0.06623672      -0.03386084       0.02450773
H       21.74580693      -5.32143216      19.47815785      -0.02124122      -0.02775551      -0.01738263
H       21.07001375      -6.01399381      21.73815937      -0.02247055      -0.00587355       0.02668531
H       22.56359041      -2.39290389      23.41612826       0.00291352      -0.05054380       0.03451593
