151
Properties=species:S:1:pos:R:3:MACE_forces:R:3 energy:=T -221.336675518840=T gnorm:=T 0.004331513250=T xtb:=T 6.7.1=T (edcfbbe)=T MACE_energy=-90873.4950145475 pbc="F F F"
C       27.97092341      -2.28989389      18.44568316      -0.34772376      -0.12515257      -0.17969738
N       26.68010135      -0.19459545      17.08167637       0.28141457      -0.19294142      -0.03309603
O       26.14310452      -3.14093194      17.04898774       0.11445424       0.19234929       0.00938038
C       26.46607951      -2.33118474      18.17980197       0.11541225      -0.11138751       0.19142352
N       23.28640971      -2.46330317      18.83977876       0.38512131       0.07726621      -0.04090470
O       24.19081635      -0.98120553      24.33350162      -0.10773657       0.52853848      -0.46901981
C       26.14728710      -4.52907033      17.30334133      -0.01459983       0.17092446       0.09668222
N       22.60701632      -2.18587982      27.26174995       0.43783342      -0.27215236       0.13163261
O       19.77422010      -8.20693733      23.08019725      -0.82693757       0.07093126       0.15016441
C       25.93307036      -0.94182651      17.87953409      -0.33668548      -0.14216482       0.18504673
N       21.79254276      -1.68145950      28.27884870       0.96144959       0.50369246      -0.00940028
O       16.61497358      -5.39136920      26.52072039       0.08752838      -0.43536645       0.22936980
C       26.28038134       1.02601279      16.77283427      -0.05232590       0.21728910      -0.09123569
N       18.74284134      -3.68193969      28.03215962       0.17876865       0.45740144      -0.48658026
O       19.39338415      -5.35775538      29.39228336      -0.27236927       0.22961775      -0.06274609
C       25.11042738       1.58556672      17.26084714      -0.02009533      -0.05709144       0.02901647
N       16.84908115      -6.38355337      28.52019809      -0.22123184       0.19100378       0.41449647
O       20.02189842      -5.53233352      25.83572096      -0.00044080       0.12840137      -0.06910456
C       24.32126449       0.81338101      18.09466757       0.13353377      -0.06221237      -0.06687850
N       17.77711223      -8.83606715      23.96878458      -0.14615810      -0.25336045       0.05714055
O       19.82792936      -1.69474358      29.36554023       0.44513455       0.03153974      -0.46986406
C       24.71793307      -0.48404476      18.41250744       0.12304587       0.23259989      -0.20732716
N       15.80781032      -4.66706891      21.26699764      -0.04179158       0.02539875      -0.10101843
O       24.82991529      -2.65596009      25.68078854      -0.36264939       0.46463040      -0.10786011
C       23.88933981      -1.31050360      19.29756572       0.06283758       0.18867583       0.38519304
N       21.20643921      -4.26938637      23.63306540       0.15617322       0.07829252      -0.34605635
C       23.05998325      -2.77139631      17.44838624      -0.20756927       0.11942088      -0.49739191
C       21.86993602      -1.98292688      16.90326557       0.14721985      -0.16254998       0.09130574
C       23.63890922      -1.13738851      20.63964504       0.06114662       0.16135074      -0.31615479
C       24.04811312       0.00509601      21.51391842       0.16641135      -0.06449163      -0.00585788
C       25.33751013      -0.18952093      22.34276874      -0.08593293      -0.01102308       0.27754772
C       25.63195672       1.11217963      23.09302165      -0.11086657      -0.20556552      -0.06196959
C       26.51146132      -0.53641991      21.42894521      -0.22609084      -0.04943565       0.18484763
C       25.18084386      -1.33116684      23.35503621       0.50259191      -0.18735710      -0.30534254
C       24.12808814      -1.69828540      25.43567435       0.14755512      -0.90982011       0.68818679
C       23.11564155      -1.11854443      26.40727586       0.21158998       0.07178994      -0.04500166
C       20.54742243      -2.14043875      28.47644781      -1.26495913      -0.31511700       0.47278876
C       20.07339949      -3.31083458      27.60614794      -0.00021785      -0.23056191       0.15791899
C       18.50552045      -4.69341628      28.86868281       0.06145554      -0.32493165       0.21672521
C       17.02060390      -5.02700744      29.06131208       0.10222182       0.23811558      -0.02167599
C       16.57063446      -4.80691810      30.50792920      -0.03079099      -0.02209105      -0.15112490
C       15.09436743      -5.15951599      30.67722949       0.26980622      -0.11197620       0.00480405
C       16.79361585      -3.33127855      30.84693418       0.22929568      -0.23284668       0.03949516
C       16.72398257      -6.42561927      27.18761039      -0.48671435       0.41556087      -0.83829641
C       16.73206187      -7.76153536      26.41492482       0.13527767       0.19549245      -0.26391155
C       18.18691893      -8.23143754      26.28124726      -0.06204079      -0.04104259      -0.09794556
C       18.35517111      -9.31053604      25.20544350       0.41345107       0.00448897       0.28289841
C       18.54310869      -8.14231224      23.09940886       1.26103039      -0.47015818      -0.01589744
C       17.83898631      -7.30555191      22.16389462      -0.10914866       0.87519859      -0.76605268
C       17.43883084      -6.46537722      21.39682817       0.08197031      -0.77144869       0.79096232
C       16.82395284      -5.44890306      20.54293641      -0.01193924       0.31421925      -0.56368493
C       16.32827233      -3.92413493      22.39917568       0.12777114       0.00243930       0.16062358
C       14.64184220      -5.43242055      21.66975869       0.00977627      -0.05080691      -0.00782979
C       17.92962590      -4.51585279      20.02090885      -0.03390884      -0.02658298       0.16040160
C       16.18698933      -6.15864079      19.33632698       0.01545983       0.01562076       0.11063698
C       16.34810030      -8.65538933      24.06849527      -0.45965344       0.21445746       0.06738541
C       16.04003973      -7.54205086      25.06488768       0.17826349       0.05738504       0.00595764
C       17.24682575      -7.48584087      29.37134541       0.29390571      -0.39766025       0.21251578
C       20.06798087      -3.07546606      26.09563096       0.15214448      -0.48085608       0.05043614
C       19.50351534      -4.30002235      25.34826016      -0.40790074       0.27600976      -0.19255232
C       19.77752991      -4.16409178      23.84564257      -0.28121086      -0.26582873       0.29380233
C       21.66890743      -5.58329957      24.04330859      -0.10034825      -0.33893416       0.25616956
C       21.39697679      -5.71883406      25.53933577       0.20296332      -0.10118241      -0.13448487
C       22.36815889      -0.65151248      29.13214210      -0.18037741       0.16825591       0.01294489
C       22.84973900       0.51643239      28.27559582       0.13246030      -0.21968277       0.12423664
C       23.81385065      -0.00295605      27.21168225      -0.36141737       0.10700130      -0.05391379
C       22.84535994      -2.25340280      21.03984497      -0.24541275      -0.29817805      -0.40806396
C       22.64026385      -3.05456684      19.88851996      -0.17203408      -0.11219357       0.72920077
C       21.92337862      -4.24471841      19.95816253      -0.03353395      -0.11184722      -0.15580018
C       21.44943576      -4.64792690      21.18749792      -0.11204482      -0.13228295       0.10016504
C       21.64587259      -3.86388204      22.33373417       0.02981449       0.18857717       0.26497864
C       22.30988330      -2.65793296      22.26047329      -0.05072647      -0.12479368      -0.12206964
F       15.99491028      -8.74804727      27.09184527      -0.02529011      -0.13279972       0.06717777
H       28.17628113      -1.61932573      19.27421510       0.05508353       0.04040248       0.05573015
H       28.34141661      -3.28045874      18.69527760       0.02090560      -0.03836307       0.04696334
H       28.47605010      -1.92605020      17.55694181       0.05496090       0.00307643       0.03300621
H       25.94072886      -2.73750342      19.05867816       0.12087191       0.11729612      -0.24750864
H       25.43211033      -4.78072574      18.09600121       0.04832432      -0.03197001      -0.06843792
H       25.84638042      -5.00163285      16.37207578       0.00870753      -0.11604076       0.08181776
H       27.13868862      -4.88794532      17.58956403      -0.03625189      -0.02779855      -0.02349971
H       26.93610709       1.57349773      16.10969500      -0.04808852       0.12377166      -0.01272061
H       24.82608199       2.58960166      16.99161481      -0.01466712       0.06293613      -0.02124032
H       23.39406215       1.20046294      18.49135674      -0.02807017      -0.02540250       0.03051387
H       23.96072845      -2.53509060      16.87786167      -0.23053737      -0.20055685       0.16799179
H       22.87045834      -3.84315781      17.36379861       0.13854836       0.12049096       0.00426911
H       22.08524291      -0.91696612      16.92234243      -0.02077605       0.02307734      -0.01606178
H       21.66718957      -2.27880995      15.87892118      -0.05738090       0.01668881      -0.10724687
H       20.98627796      -2.17065426      17.50864685      -0.06519767       0.01280705      -0.01687444
H       24.19557161       0.88835377      20.88978779      -0.04994759       0.03578406       0.13420778
H       23.23083123       0.20764022      22.20879489       0.03514267       0.14547639      -0.06814828
H       24.79669054       1.37380821      23.73702392       0.00506860       0.08363221       0.03165431
H       26.52299654       1.00349061      23.70681560       0.07010852       0.03214246       0.06493869
H       25.79540609       1.92239381      22.38833716       0.01941682       0.07043507      -0.05022982
H       26.34447630      -1.49797212      20.95325305       0.07278769      -0.05282908      -0.08942819
H       26.62063189       0.21830681      20.65463476       0.03255325       0.01181294      -0.06223452
H       27.43656670      -0.58744542      21.99735691       0.08839056      -0.01054971       0.01116647
H       26.12523418      -1.52152658      23.87527373      -0.16653685       0.06379654      -0.11220281
H       24.87029097      -2.25608532      22.86096378       0.05939968       0.16053789       0.11408911
H       22.27617424      -0.69513292      25.84769860       0.12698158      -0.06306695       0.10288571
H       23.39644185      -2.70533248      27.65109817      -0.26722540       0.14933781      -0.07802200
H       20.71928954      -4.16300271      27.85217208      -0.18504570       0.21092858      -0.14777173
H       17.97437565      -3.15171099      27.65067383       0.07089238      -0.30645442       0.18594876
H       16.42094598      -4.37771605      28.41678710       0.16596339      -0.13848914       0.22697363
H       17.19152625      -5.40870962      31.17662900      -0.06837499       0.04767630      -0.08402062
H       14.78795648      -4.98546062      31.70467693      -0.07550945      -0.00114083       0.05652535
H       14.48845579      -4.53359270      30.02584246      -0.07288729       0.04564251      -0.03985108
H       14.89562101      -6.19753799      30.42716792      -0.07316320      -0.06444712      -0.01040555
H       17.83579017      -3.04811787      30.71139288      -0.04386047       0.08147344       0.04764598
H       16.18402186      -2.69880468      30.20565150      -0.06391183       0.05988276      -0.03700615
H       16.51710222      -3.14106203      31.87971830      -0.02989797       0.07006278       0.05224948
H       18.79528452      -7.36077852      26.02318393      -0.02832996      -0.12531917       0.00778010
H       18.53328000      -8.61566711      27.23953909      -0.02981892       0.09521824       0.01850648
H       17.84757089     -10.23223923      25.49935219       0.07972718       0.06374704      -0.08337908
H       19.41520575      -9.50968621      25.04171281      -0.23053867      -0.02263399       0.03523361
H       16.72433938      -4.56895322      23.20027249      -0.03399936       0.07933192      -0.11680094
H       17.11281883      -3.24567686      22.07812608       0.00128483       0.00332815       0.08126051
H       15.51831777      -3.32880330      22.81732848       0.04358796      -0.00065717       0.00204884
H       13.95840203      -4.75978532      22.18469871      -0.01226981      -0.04114979      -0.01260713
H       14.13002722      -5.82584315      20.79684809      -0.05283578      -0.06421932       0.07059350
H       14.88738347      -6.25973225      22.35234245      -0.03548205       0.04742074      -0.06389323
H       18.57179942      -4.15863936      20.82151006      -0.02376355      -0.00426068      -0.05293064
H       18.55638160      -5.05376583      19.31564421       0.03548303      -0.01383546       0.00860086
H       17.47229124      -3.66850317      19.52027753      -0.05006621       0.05777181      -0.06243529
H       15.54442988      -6.97696716      19.64708138      -0.02256228       0.01349983      -0.01988747
H       15.60951490      -5.43767968      18.76563654      -0.03747094       0.04795767      -0.04189358
H       16.96949510      -6.57046758      18.70509863       0.00202177      -0.01549618       0.01015008
H       15.94101755      -8.40575842      23.08767784       0.02574806      -0.13788915       0.22446458
H       15.91266464      -9.59903428      24.40734045       0.06276355       0.06247980      -0.15157049
H       14.96649021      -7.46872058      25.24042406       0.05841195       0.09899901      -0.00349324
H       16.39026964      -6.58777561      24.66894424      -0.11487574      -0.18671950       0.04785405
H       18.33042178      -7.46639264      29.51140561      -0.16490202      -0.05438992       0.06314998
H       16.77249876      -7.37140859      30.34223383       0.02978969      -0.05511807      -0.04879617
H       16.93836957      -8.43628362      28.95445658      -0.01296527       0.14847639       0.01003772
H       19.44582429      -2.21357696      25.85621654      -0.00040480       0.10102682      -0.05263036
H       21.08260603      -2.89831604      25.74687957      -0.28714851       0.13592955       0.07067301
H       18.42542091      -4.39038431      25.52251745       0.32119428       0.06656422      -0.11078110
H       19.43579383      -3.18879464      23.49591831      -0.01543862      -0.07829271       0.00880197
H       19.22339745      -4.95431846      23.30556083       0.06190332       0.22462210       0.09487759
H       21.15712577      -6.40228955      23.50928298       0.17129701       0.21072632       0.13897126
H       22.74229201      -5.65530684      23.85967899      -0.08893679      -0.00235511       0.03166100
H       22.00779376      -4.99034561      26.08571180      -0.03149830      -0.09864904      -0.01745428
H       21.63347494      -6.72567990      25.88670890       0.04090416       0.15101827      -0.04666280
H       21.59494176      -0.34669253      29.83688946       0.18797216      -0.08303616      -0.11393900
H       23.20736377      -1.08785063      29.68522667      -0.04339149       0.05140701      -0.00881268
H       23.34495249       1.25069440      28.90924843      -0.04135994       0.04608910      -0.02007801
H       21.99233107       0.99104845      27.79706481       0.02016404       0.02424566       0.06367297
H       24.70749449      -0.41562572      27.68712713      -0.02314394       0.00859263      -0.07997968
H       24.11745803       0.79767421      26.53856476       0.05446300      -0.04481427      -0.00276772
H       21.75351082      -4.85444909      19.08384409       0.00292145      -0.02351915      -0.04184859
H       20.91832139      -5.58546490      21.27743697      -0.02641519       0.00327331       0.01617693
H       22.41678657      -2.06212854      23.15114312       0.00578904      -0.05949135       0.05461205
