151
Properties=species:S:1:pos:R:3:MACE_forces:R:3 energy:=T -221.336843495587=T gnorm:=T 0.004556483805=T xtb:=T 6.7.1=T (edcfbbe)=T MACE_energy=-90873.45158444528 pbc="F F F"
C       27.63391478      -1.65501370      17.85508441      -0.25555998      -0.28637400      -0.09144123
N       25.58489881      -0.17932308      16.63363932       0.28683927      -0.08642909      -0.11664945
O       25.97602872      -3.12837484      16.78955712       0.07610171       0.16358613       0.00697381
C       26.19780201      -2.17744788      17.82887392       0.13504430      -0.03566161       0.16933936
N       23.23996543      -3.13327565      19.04236194       0.34171121       0.00548389      -0.05408078
O       23.98100426      -0.85462592      24.29048115      -0.24195535       0.47868946      -0.60554184
C       26.65912059      -4.35187576      16.95356003      -0.04978856       0.08144643       0.04040321
N       22.61336948      -1.83670083      27.41270535       0.47152392      -0.19189403       0.08881231
O       19.73680433      -8.12018664      22.84712657      -0.56665980       0.15541658       0.07214726
C       25.22882809      -1.03768127      17.57874453      -0.24045475      -0.23028420       0.24643241
N       21.67795685      -1.33845575      28.32411238       0.85232848       0.68740016      -0.00616362
O       16.75175710      -5.24586419      26.72988477       0.05857289      -0.41095541       0.10159474
C       24.80742354       0.85373004      16.36623299      -0.13430398       0.18351986      -0.04614194
N       18.98307641      -3.80901645      28.32303671       0.08694286       0.64118427      -0.51573536
O       19.72930542      -5.47270188      29.65491490      -0.28065751       0.06925259      -0.02519617
C       23.62549719       1.10783510      17.04498079       0.02641692      -0.04555473       0.02081142
N       17.19421771      -6.53624577      28.51048191      -0.19942749       0.08204649       0.41799208
O       20.27250796      -5.74368141      26.34117610       0.07000974       0.11551698      -0.00364061
C       23.24032096       0.21310337      18.02550482       0.09498094      -0.05111210      -0.12066544
N       17.65824365      -8.53025991      23.66428871      -0.19979100      -0.32467650       0.07012118
O       19.67608820      -1.48703687      29.32632446       0.41101941      -0.07017284      -0.40470115
C       24.03796098      -0.89728564      18.30440925       0.03798864       0.29570268      -0.26675513
N       16.42851958      -3.95638694      21.17213889      -0.03588440      -0.04925866       0.09614222
O       24.90103842      -2.13758982      25.88275576      -0.45968547       0.36403446      -0.12142404
C       23.59037836      -1.83404230      19.34000293       0.03096718       0.27074375       0.42324150
N       21.51408608      -4.71394526      24.04942961       0.02000547      -0.05344944      -0.19711214
C       23.02483844      -3.65599346      17.71551129      -0.28022303      -0.00814722      -0.43924337
C       21.61954856      -3.31782864      17.21980521       0.17288112      -0.11261657       0.09958430
C       23.38745962      -1.57723730      20.67780815       0.03735375       0.16602708      -0.37052728
C       23.65130696      -0.29921625      21.40695602       0.17175522      -0.09454058      -0.01419293
C       24.99605611      -0.22935005      22.16855884      -0.12446705       0.02116316       0.27009422
C       25.18592157       1.19826710      22.68802622      -0.05723687      -0.22392710      -0.01861701
C       26.15525002      -0.59645325      21.24338011      -0.16729762      -0.07401923       0.21122025
C       25.01037282      -1.20559054      23.35141445       0.46149471      -0.20625374      -0.26863807
C       24.03800124      -1.37948907      25.49719738       0.30216648      -0.75431732       0.87489451
C       22.91578996      -0.85306029      26.37663225       0.20565446       0.14491732      -0.04532180
C       20.51291874      -1.96045569      28.56398180      -1.01856188      -0.45196608       0.50468387
C       20.27348313      -3.31814696      27.89294086      -0.03118865      -0.16912854       0.11068547
C       18.80855917      -4.86122375      29.12541308       0.10330716      -0.31974743       0.32889399
C       17.34228262      -5.29382505      29.27839281       0.13096579       0.31045480       0.12650653
C       16.91214055      -5.37345677      30.74623911      -0.01044983       0.04076545      -0.14004008
C       15.46863009      -5.86001795      30.85650867       0.29536430      -0.05664431      -0.02054183
C       17.04520578      -3.97791629      31.35707233       0.22127249      -0.19311848      -0.05881802
C       16.93235180      -6.36935508      27.20821958      -0.45219418       0.44419266      -0.63502273
C       16.82636864      -7.58449043      26.25674967       0.24513549       0.21358998      -0.26729314
C       18.19956080      -8.21964904      26.01179677      -0.16690829      -0.07841355      -0.14773798
C       18.16692464      -9.20333921      24.83726904       0.43058510      -0.06540793       0.29534606
C       18.52305210      -7.89979977      22.84606905       1.00951147      -0.43324987       0.04295615
C       17.96990854      -6.91182370      21.96012208      -0.05043786       0.98333227      -0.74187209
C       17.72400540      -5.94078388      21.29029081      -0.04808794      -0.89541368       0.51633316
C       17.42037789      -4.77723859      20.46304617       0.12179047       0.12117082      -0.30888242
C       15.99294622      -2.77398090      20.45713064       0.01763483      -0.07998760      -0.00746727
C       16.79799842      -3.60849401      22.52961649       0.05568422       0.04220132       0.12930556
C       18.76378629      -4.07080805      20.18138647      -0.14096297       0.01133080       0.11305619
C       16.82207136      -5.29913436      19.14537733       0.05098854       0.05353860       0.04469322
C       16.27933429      -8.12964293      23.82365408      -0.32223818       0.29332202       0.16876847
C       16.16719136      -7.10983630      24.95547863       0.07613445      -0.09266330       0.02766357
C       17.67627237      -7.75857190      29.11892273       0.31311999      -0.29674763       0.03261408
C       20.31889258      -3.26957811      26.36131764       0.08270497      -0.61400916       0.04387188
C       19.77476125      -4.56195835      25.72842851      -0.37309874       0.38221250      -0.30836453
C       20.08339199      -4.56598919      24.22836380      -0.31336444      -0.17579427       0.30590318
C       21.94098110      -5.99386238      24.58588943      -0.07764725      -0.21594524       0.31524219
C       21.64980238      -5.97247792      26.08538086       0.20812787      -0.14940920      -0.14597611
C       22.01440982      -0.08271714      28.98212589      -0.28061946       0.14401086       0.01249658
C       22.28484386       0.99374927      27.93413869       0.23364856      -0.17975751       0.13333740
C       23.35764177       0.50169663      26.96457486      -0.36091867       0.01996389      -0.12336370
C       22.85952011      -2.77826085      21.23739736      -0.22456222      -0.32576918      -0.29971866
C       22.78017194      -3.72466758      20.18527237      -0.04745964      -0.01568982       0.65301075
C       22.30414071      -5.01254350      20.40703372       0.00099060      -0.12741257      -0.14346695
C       21.90019731      -5.34827552      21.68016929      -0.12624986      -0.15987346       0.09888566
C       21.94849863      -4.41320295      22.72448116       0.10418704       0.22632482       0.18928850
C       22.41315844      -3.13217375      22.50866892      -0.03806970      -0.16158027      -0.10283462
F       15.98161375      -8.54890356      26.83384667      -0.10376340      -0.14718145       0.03155911
H       27.88191359      -1.25566682      16.87634037       0.03193409       0.03096200       0.02868726
H       27.71546568      -0.86376501      18.59338895       0.07480206       0.04568887       0.05342013
H       28.32782123      -2.44908020      18.11501195       0.04611131      -0.01478574       0.04993381
H       25.95654246      -2.65487531      18.79356509       0.02513563       0.14310572      -0.25396740
H       27.72805816      -4.25128320      16.74021305      -0.09613039      -0.05517342       0.04354619
H       26.52719784      -4.74089079      17.97175538       0.02771101       0.00126486      -0.11798911
H       26.21220062      -5.04274226      16.23935486       0.12216420      -0.00950919       0.09967744
H       25.15665112       1.50526675      15.57753699      -0.06606725       0.10707404      -0.02453361
H       23.02706555       1.97202569      16.80734191      -0.03016486       0.04070242      -0.01774027
H       22.31863672       0.35213731      18.57158243      -0.01096502      -0.00767452       0.02945849
H       23.77391421      -3.24017754      17.03991434      -0.14016496      -0.21717832       0.21587603
H       23.15965399      -4.73943002      17.75244261       0.10274460       0.17784886      -0.03668064
H       21.51588304      -2.24338450      17.08622554      -0.01760501       0.02099113      -0.00822757
H       21.43180722      -3.80786538      16.26970031      -0.07505700      -0.00259658      -0.10777999
H       20.87928340      -3.65159363      17.94332133      -0.06883545      -0.00218846      -0.03139186
H       23.64261402       0.52262833      20.68937766      -0.05328289       0.03452323       0.12188844
H       22.84933258      -0.13638450      22.12883523      -0.01679367       0.14252265      -0.09370415
H       25.25263457       1.89392329      21.85600478       0.00523955       0.07658204      -0.05094129
H       24.34849049       1.48685527      23.31735114      -0.02085657       0.07832357       0.03071003
H       26.10054534       1.27233625      23.27177454       0.06883825       0.04738947       0.05058174
H       27.10665899      -0.46674447      21.75251790       0.09859924       0.03209435       0.01565046
H       26.07453440      -1.63138904      20.92285706       0.03158160      -0.04388675      -0.06259520
H       26.14212294       0.03969984      20.36221219       0.01734445       0.02632431      -0.07053409
H       25.97413770      -1.17702120      23.86910829      -0.17037965       0.01082585      -0.12886256
H       24.83190640      -2.23017027      23.01382699       0.07124147       0.16882817       0.09791801
H       22.01787431      -0.71169344      25.76719862       0.13563437      -0.02988061       0.10096497
H       23.47900969      -2.09516913      27.88942425      -0.27608369       0.04341374      -0.08251527
H       21.01754765      -4.02463436      28.27789105      -0.19135238       0.17309679      -0.17175206
H       18.17800023      -3.33560531      27.94179556       0.07715627      -0.30059036       0.17247263
H       16.70224415      -4.56045576      28.77857076       0.13247777      -0.18902079       0.19659530
H       17.58940766      -6.04042491      31.28647953      -0.09327895       0.06968773      -0.10259009
H       15.33641771      -6.83509245      30.39631740      -0.06441405      -0.06812513      -0.00409747
H       15.17631552      -5.92610074      31.90044928      -0.07713316      -0.00990860       0.05799248
H       14.80499993      -5.15882684      30.35571936      -0.07891933       0.03476673      -0.02234105
H       16.81600997      -4.01333153      32.41842448      -0.02644358       0.05290004       0.06480031
H       18.05708328      -3.59613053      31.23461733      -0.03042383       0.06506778       0.06813750
H       16.36010385      -3.28266952      30.87738771      -0.05843144       0.06007941      -0.02559932
H       18.91144882      -7.41673803      25.80990725      -0.04765041      -0.13117691      -0.00088750
H       18.53410076      -8.74794699      26.90084110       0.00495976       0.13053656       0.01433284
H       17.51307051     -10.04769632      25.06666388       0.10674495       0.04884315      -0.06735917
H       19.17443901      -9.56410404      24.62543324      -0.24720769       0.01784603       0.05298940
H       16.77757189      -2.00746706      20.37118456      -0.05618093      -0.02876493      -0.02665137
H       15.64143495      -3.04058147      19.46514093      -0.01579893       0.08279906      -0.03326480
H       15.15973579      -2.34119989      21.00936252       0.01754303       0.04432962      -0.07868515
H       15.90552539      -3.26883105      23.05414224       0.07042647       0.03381933       0.02872376
H       17.18623150      -4.48286946      23.04730243      -0.03801946       0.11184436       0.03286830
H       17.55352082      -2.80952675      22.58131012      -0.03465764      -0.05873784       0.00236861
H       19.43251274      -4.75954097      19.67169073       0.04319617       0.05019051       0.00633169
H       18.60706853      -3.19731538      19.55377280       0.01290550       0.03878510      -0.04823118
H       19.24657273      -3.76599936      21.10816429       0.02462750      -0.00280683      -0.06140052
H       17.39455956      -6.15631405      18.79993981       0.00267594       0.05272732      -0.05157121
H       15.79241002      -5.60544089      19.30615670      -0.01871198      -0.01906821       0.00020163
H       16.85785171      -4.53133027      18.37795202      -0.03243669       0.02424141      -0.04880258
H       15.91091271      -7.69244822      22.89532862       0.01494876      -0.14624740       0.16184278
H       15.69609579      -9.02303609      24.06134905       0.03705888       0.09690685      -0.13434126
H       15.12085167      -6.88261494      25.15987494       0.09822441       0.07661189       0.02564246
H       16.66010039      -6.18299126      24.65956436      -0.11211411      -0.14637367       0.00853903
H       17.24265088      -8.62680520      28.63691235      -0.00123605       0.08337578       0.03717284
H       18.76763712      -7.79155893      29.06772401      -0.14595957      -0.08826932       0.09555472
H       17.38675508      -7.77364850      30.16469149       0.00674942      -0.04441293      -0.07459475
H       19.70369149      -2.44388742      26.00341074      -0.00202100       0.07330193      -0.06454927
H       21.34544779      -3.12477691      26.03267498      -0.25960537       0.10073318       0.02997187
H       18.69152333      -4.62179130      25.87797418       0.31459947       0.10489670      -0.10266809
H       19.76189672      -3.62250217      23.78545566      -0.02220377      -0.07813613       0.01565899
H       19.53063970      -5.38900551      23.73962478       0.06235854       0.22671788       0.06194763
H       21.41097508      -6.84399809      24.12309221       0.12122636       0.15332820       0.07129010
H       23.01325241      -6.10688493      24.41891298      -0.07201211      -0.03124175       0.03148863
H       22.25946487      -5.19659914      26.56286539      -0.03821676      -0.10989904      -0.02850697
H       21.87132554      -6.93818000      26.54233227       0.04772166       0.14055536      -0.05131988
H       21.17410456       0.18169977      29.62347577       0.21299492      -0.05679688      -0.08255711
H       22.90410974      -0.24471340      29.59981176      -0.05820257       0.02967449      -0.02306131
H       22.61310115       1.90623926      28.42931276      -0.05621185       0.03962231      -0.02602419
H       21.36451095       1.20615283      27.38896372      -0.01618039       0.03781990       0.04588739
H       24.30543934       0.36775611      27.49160260      -0.01261081      -0.01385744      -0.06472285
H       23.50739619       1.21817390      26.15805184       0.06988584      -0.01710750       0.01710947
H       22.24365692      -5.73835519      19.61059592       0.00256940      -0.01982828      -0.04685421
H       21.51285227      -6.33770891      21.87669569      -0.01554208      -0.01404303       0.00335953
H       22.41154827      -2.42843939      23.32520052       0.05269450      -0.02427125       0.03658671
