151
Properties=species:S:1:pos:R:3:MACE_forces:R:3 energy:=T -221.337751402255=T gnorm:=T 0.003942737220=T xtb:=T 6.7.1=T (edcfbbe)=T MACE_energy=-90873.47365896912 pbc="F F F"
C       27.54095142      -1.71012749      17.93752267      -0.29517003      -0.21144952      -0.15795673
N       25.61395422      -0.00137504      16.74586334       0.28884187      -0.10245545      -0.06634332
O       25.81549992      -2.91550635      16.66129598       0.06829671       0.16743159       0.02386332
C       26.07094334      -2.10892665      17.80987883       0.10073092      -0.07537672       0.15457436
N       23.07543551      -2.89697524      19.06379066       0.30090160       0.10337265      -0.05094672
O       24.14730747      -1.02156206      24.39886275      -0.19670772       0.54287482      -0.43289853
C       26.39459825      -4.20216896      16.69249882      -0.05588610       0.17395226       0.06707931
N       22.84005088      -2.29471804      27.45287742       0.38584566      -0.23555982       0.10829896
O       19.87778149      -8.10947818      23.06325126      -0.76530859       0.20110812       0.03027613
C       25.19655729      -0.88082303      17.64556711      -0.25907665      -0.19693190       0.24401286
N       22.10383478      -1.79952493      28.53486618       1.07843380       0.44337825      -0.07551129
O       16.69437102      -4.94901390      26.81525802      -0.03432607      -0.43215625       0.13555071
C       24.90215820       1.08840315      16.52346506      -0.08718567       0.16840597      -0.07922641
N       18.96364886      -3.69538582      28.48277948       0.19779282       0.53565484      -0.44604471
O       19.48992554      -5.56143946      29.64232259      -0.27577386       0.21285087      -0.02605109
C       23.72619692       1.37699887      17.19881152       0.00399189      -0.04446840       0.02652314
N       16.85566456      -6.24969219      28.63227963      -0.22031027       0.10183166       0.42390196
O       20.29350732      -5.67335798      26.36464485       0.06628668       0.13844486      -0.07156076
C       23.28625500       0.46944606      18.14348847       0.12651525      -0.05218121      -0.08895860
N       17.75575635      -8.28407971      23.86015128      -0.21359736      -0.19610918       0.13697030
O       20.19583524      -1.70366114      29.71057484       0.37507016      -0.04660831      -0.45140836
C       24.01805585      -0.69485095      18.38146870       0.07303542       0.24235609      -0.24038512
N       16.06967225      -5.09029906      20.13417487      -0.02409104      -0.01541997       0.05635829
O       24.91676206      -2.71355441      25.65023002      -0.37862581       0.40802361      -0.00989069
C       23.51541931      -1.63241821      19.39151458       0.04606560       0.21236930       0.34364811
N       21.39686168      -4.52492466      24.06910905       0.14562966      -0.00233555      -0.31869454
C       22.90265843      -3.42854758      17.73463520      -0.25260100       0.00576184      -0.45986345
C       21.46510668      -3.25540784      17.24879106       0.21713841      -0.10144969       0.08309100
C       23.33572865      -1.39924198      20.73753019       0.05884596       0.10655906      -0.28732951
C       23.69866379      -0.18247225      21.52646339       0.11783175      -0.05362298      -0.04603754
C       25.05601985      -0.25493684      22.26466402      -0.05114664       0.01465775       0.29619357
C       25.32799653       1.10011340      22.92320089      -0.11593390      -0.21625052      -0.04713723
C       26.17336828      -0.57672826      21.27233249      -0.19475764      -0.05659329       0.17724006
C       25.06250516      -1.34873763      23.34120569       0.49257654      -0.24108874      -0.36047751
C       24.18385457      -1.76237460      25.48964858       0.20619125      -0.86831764       0.56878577
C       23.25383601      -1.21485890      26.55942040       0.24222337       0.07354305      -0.06720542
C       20.85306985      -2.20859065      28.80564544      -1.26879667      -0.25063608       0.55453594
C       20.29845399      -3.39473511      28.01088063       0.05401763      -0.18043243       0.07957883
C       18.65679667      -4.77810133      29.20152384       0.04943761      -0.39346816       0.25853354
C       17.14787975      -5.01736360      29.38141439       0.16758867       0.26630509       0.02324933
C       16.74366525      -5.01723852      30.85838147      -0.01663389       0.03009397      -0.16250040
C       15.23017703      -5.16596572      31.00445924       0.25687066      -0.14705202      -0.04279148
C       17.19667301      -3.69315736      31.47666733       0.15804719      -0.25472346      -0.00810924
C       16.73220086      -6.07922561      27.31079602      -0.41344908       0.51559768      -0.74987239
C       16.67645049      -7.28310832      26.34203575       0.20536666       0.18415045      -0.20306764
C       18.05916610      -7.93910485      26.25427387      -0.12837038      -0.00971242      -0.11044141
C       18.15234298      -8.92975071      25.08916498       0.38428780      -0.11014296       0.31717873
C       18.67898625      -7.82090189      22.99886053       1.08647493      -0.56909987       0.02712421
C       18.18348662      -6.95575004      21.96035126       0.12587494       0.86009198      -0.92527345
C       17.93646322      -6.14381552      21.10573645       0.03302504      -0.79606206       0.81862880
C       17.53735403      -5.15821420      20.10522867       0.23360872       0.33535533      -0.12205007
C       15.41575488      -6.33983948      19.79847422      -0.05671459      -0.06871163       0.01505576
C       15.47653695      -3.99759556      19.39136724       0.05401224      -0.00676544       0.02331175
C       18.15491622      -3.82275155      20.55368176       0.03111636      -0.09154657      -0.06444581
C       18.13704820      -5.56750632      18.74551692      -0.13539563      -0.00620589       0.10866577
C       16.38059676      -7.84418687      23.88436385      -0.41133443       0.27775537       0.08058865
C       16.19564730      -6.78926376      24.97345694       0.09958376      -0.08073241       0.07163980
C       17.07024201      -7.50657444      29.31584087       0.23286267      -0.39134957       0.15111381
C       20.26127454      -3.21531436      26.49129846       0.16086656      -0.48448566       0.07088546
C       19.72687021      -4.48955145      25.81588834      -0.40840730       0.27579759      -0.21962729
C       19.97033394      -4.43525568      24.30571594      -0.31778893      -0.22372796       0.28567438
C       21.91732709      -5.78850135      24.56179823      -0.06712725      -0.25761868       0.26717145
C       21.67325677      -5.82452980      26.06656423       0.15681040      -0.10050333      -0.11479278
C       22.75889899      -0.78147534      29.34473408      -0.20950114       0.19051721       0.02164218
C       23.15043988       0.40155856      28.46405691       0.14692868      -0.21774204       0.09613303
C       24.01019399      -0.09549968      27.30372264      -0.39180504       0.11949969       0.01017732
C       22.73571788      -2.57796579      21.26748086      -0.23243536      -0.31350307      -0.39140679
C       22.59243057      -3.49144655      20.19470068      -0.10934070      -0.05779908       0.72663755
C       22.04843912      -4.75657656      20.39257587      -0.00513101      -0.13341773      -0.13417175
C       21.65690931      -5.10318657      21.66712156      -0.08851865      -0.16625216       0.11551981
C       21.77866979      -4.19937402      22.73369109       0.05831360       0.18059246       0.19774770
C       22.29284760      -2.93638258      22.53769108      -0.05297662      -0.12126243      -0.12692632
F       15.74410305      -8.23367151      26.79602965      -0.05037678      -0.10609154       0.04699827
H       27.65069050      -0.98578662      18.73808908       0.05627209       0.03713899       0.06607967
H       28.15564971      -2.57719348      18.16306177       0.05012547      -0.02521694       0.03545968
H       27.86792219      -1.26166253      17.00430220       0.03831980       0.01900373       0.02448482
H       25.75743708      -2.66705827      18.70823809       0.05242736       0.17020201      -0.24299782
H       27.47788232      -4.16217463      16.55460088      -0.04056697      -0.04517624       0.01999791
H       26.16688734      -4.71101573      17.63565941       0.02092539      -0.02082026      -0.05444254
H       25.94537776      -4.74568319      15.86457139       0.09650160      -0.10253320       0.06376118
H       25.30013765       1.75590016      15.77141769      -0.07186297       0.10587366      -0.00779403
H       23.17470115       2.27820136      16.98576498      -0.02463801       0.05878147      -0.00944314
H       22.37184683       0.63591420      18.69381031      -0.01622395       0.01551830       0.01391106
H       23.58948184      -2.92047445      17.05623081      -0.13053592      -0.25462474       0.21054661
H       23.16415752      -4.49028414      17.75493614       0.07768386       0.17389079      -0.06118572
H       21.20872560      -2.20080997      17.20008742      -0.02548774       0.06361115      -0.01730808
H       21.35969802      -3.68907677      16.25918457      -0.07849736      -0.01806434      -0.09773824
H       20.77437965      -3.75029530      17.92659759      -0.08170820       0.00057177       0.00298178
H       23.73989182       0.67829601      20.85644057      -0.04324303       0.03916256       0.13820650
H       22.91859281      -0.00434274      22.26880845       0.01003434       0.13486368      -0.07006701
H       24.51320772       1.36683199      23.59056536      -0.00540356       0.07714441       0.04160666
H       26.24907308       1.06264776      23.49907876       0.09090322       0.04480225       0.06478729
H       25.42688056       1.87254962      22.16626880      -0.00301717       0.07784626      -0.05720442
H       26.16381454       0.14403115      20.45807231       0.03431904       0.00132806      -0.05252997
H       27.14376551      -0.53837116      21.75990479       0.09461305       0.00785267       0.01098014
H       26.03630739      -1.57016230      20.85396090       0.05448125      -0.03760342      -0.07047604
H       26.06199769      -1.44929582      23.77755927      -0.17370665       0.04752930      -0.10016325
H       24.77860075      -2.31780383      22.92064750       0.07810460       0.20223928       0.12613723
H       22.35916544      -0.80039146      26.08611777       0.13435188      -0.06068652       0.08487878
H       23.66646302      -2.79894632      27.77724174      -0.24736707       0.13557752      -0.05333222
H       20.91233272      -4.26629635      28.26971949      -0.15523775       0.21309349      -0.14222120
H       18.22203450      -3.10049696      28.14639303       0.04771138      -0.28758627       0.15978639
H       16.59413298      -4.22092164      28.87530954       0.14668386      -0.18763767       0.18801692
H       17.26220052      -5.82710132      31.37638661      -0.04282897       0.06733401      -0.07146116
H       14.96217944      -5.22913170      32.05513050      -0.07021139       0.00195821       0.05823423
H       14.73123552      -4.30130078      30.57325202      -0.06753499       0.06525794      -0.03289488
H       14.86167711      -6.05359944      30.49848866      -0.08506782      -0.05591377      -0.01809137
H       16.91893909      -3.66000425      32.52621380      -0.01017448       0.06308228       0.05819065
H       18.27558554      -3.57534349      31.40146801      -0.02305798       0.06965313       0.06048927
H       16.72972212      -2.85322791      30.96836695      -0.05558376       0.07481052      -0.02331170
H       18.80078689      -7.14841988      26.12848565      -0.04187295      -0.15644666      -0.01605093
H       18.28946453      -8.46304699      27.17947423      -0.01767538       0.09596152       0.01355922
H       17.49025821      -9.78207692      25.26401670       0.09976405       0.04246068      -0.06153563
H       19.18052974      -9.27888743      24.98213000      -0.24176771       0.01134356       0.00812647
H       14.39793164      -6.31004400      20.18902388       0.03819413      -0.06079098      -0.06550996
H       15.36124307      -6.51869365      18.71443446       0.02558090      -0.02974360       0.05227402
H       15.94137734      -7.17096476      20.26439314      -0.14574110       0.01518822      -0.07720366
H       15.61569143      -4.08585607      18.30363303      -0.00277452       0.05881237       0.02570806
H       14.40643755      -4.00334862      19.59554601       0.02769186       0.06123634      -0.06472279
H       15.87936357      -3.04825029      19.72961897      -0.05068182       0.04535199      -0.07763884
H       18.11216583      -3.09213549      19.75150096      -0.01369694       0.09268679      -0.02448106
H       17.62579064      -3.44473842      21.42374007      -0.03194163       0.01864329       0.03403110
H       19.19881585      -3.97771010      20.82260941      -0.06845575       0.04184747      -0.07496333
H       17.78029333      -6.54827825      18.44215530       0.00230304      -0.01582888      -0.02917042
H       17.86712588      -4.83760946      17.98646099       0.00431658       0.03013941      -0.05424384
H       19.22008276      -5.60647615      18.82817666       0.03455930       0.01040070      -0.02485321
H       16.10849398      -7.42429152      22.91614351      -0.02848133      -0.17016519       0.22325966
H       15.75110289      -8.71340305      24.09540325       0.06315640       0.06525349      -0.14203954
H       15.14526566      -6.50912209      25.05132902       0.08848512       0.08240567       0.03367650
H       16.76740856      -5.89650815      24.71989351      -0.10660984      -0.11640611       0.01495156
H       18.12637062      -7.59590954      29.58207927      -0.15022928      -0.05875007       0.03838024
H       16.47409679      -7.52802529      30.22445703       0.03355482      -0.04780211      -0.03315849
H       16.76645127      -8.34214521      28.69868079      -0.01235494       0.11721115       0.05059137
H       19.60234091      -2.38767520      26.23244605      -0.00991255       0.10749119      -0.05240559
H       21.26103435      -3.01857026      26.11489174      -0.30735320       0.10881795       0.04519860
H       18.65484318      -4.58808356      26.01228076       0.39763715       0.06919968      -0.17177826
H       19.60276407      -3.48941079      23.90393956      -0.01554666      -0.07674375       0.04252083
H       19.42083460      -5.25956099      23.81399720       0.09083761       0.23916281       0.10442678
H       21.43512530      -6.66200445      24.09151599       0.13463826       0.20542529       0.11862718
H       22.99016999      -5.82324311      24.36231776      -0.09571052      -0.02784062       0.05109098
H       22.25687606      -5.03032574      26.54537830      -0.01626037      -0.10748315      -0.00124504
H       21.95428017      -6.78999660      26.48894194       0.04348256       0.13957607      -0.05756018
H       22.06091819      -0.48915404      30.12870551       0.17111128      -0.08289206      -0.13384326
H       23.64973134      -1.22764249      29.80001477      -0.03918690       0.05075439       0.00042783
H       23.70131690       1.13027583      29.05668148      -0.04110131       0.05212226      -0.01159061
H       22.24764759       0.87668266      28.07902923       0.02400119       0.02722985       0.05742528
H       24.95240145      -0.49815324      27.68378383      -0.02257397       0.00444425      -0.07500068
H       24.23299367       0.71548179      26.61201830       0.06258448      -0.04276840      -0.01261381
H       21.93978073      -5.46059076      19.58121853      -0.01588562      -0.01422860      -0.03460132
H       21.23662228      -6.08191977      21.85198494      -0.01670136      -0.00399105       0.00057968
H       22.34278834      -2.25417867      23.37005590       0.01637683      -0.05446282       0.05072554
