151
Properties=species:S:1:pos:R:3:MACE_forces:R:3 energy:=T -221.337709504437=T gnorm:=T 0.009164469475=T xtb:=T 6.7.1=T (edcfbbe)=T MACE_energy=-90873.51259308189 pbc="F F F"
C       27.90277811      -1.59659559      18.33598429      -0.28222345      -0.22482878      -0.12312394
N       26.04130662      -0.12466375      16.81685943       0.30671222      -0.10765691      -0.01837108
O       26.39977110      -3.07307134      17.07172836       0.03368461       0.19381604       0.00575006
C       26.47768369      -2.10675847      18.11830084       0.11072018      -0.05759549       0.16699737
N       23.32699287      -3.00080792      18.92971795       0.33771779       0.14234289      -0.03508925
O       23.87965529      -0.99817423      24.26486025      -0.18333792       0.42478066      -0.59009709
C       26.93823528      -4.33538179      17.40299810      -0.11122990       0.19956575       0.02841221
N       22.58149141      -2.03413083      27.36175785       0.41699708      -0.20201552       0.17237747
O       19.57014124      -8.22395403      22.83828476      -0.53478054       0.11317296       0.12304980
C       25.56217966      -0.96371776      17.72463688      -0.27475621      -0.18453968       0.21707995
N       21.68881850      -1.56159218      28.32932144       0.85800308       0.58050822       0.01005221
O       16.69699981      -5.26621584      26.95204147       0.01006964      -0.42226068       0.06589482
C       25.30981231       0.90689621      16.43520419      -0.14985431       0.09634257      -0.08339812
N       18.92161216      -3.94494684      28.25383675       0.12984571       0.50351598      -0.53537217
O       19.78340713      -5.45122735      29.69846811      -0.28672157       0.08634286      -0.06806225
C       24.05391414       1.17874309      16.95637595       0.01520818      -0.05769191       0.03189842
N       17.16115818      -6.57803566      28.71157318      -0.23337941       0.08497197       0.39091062
O       20.06585997      -5.70664491      26.08482276       0.04953064       0.11501240      -0.06445418
C       23.54417332       0.30692897      17.90046353       0.14784742      -0.02366856      -0.06315504
N       17.54923857      -8.51344545      23.83043410      -0.19557032      -0.25645661       0.13243698
O       19.73490953      -1.74014982      29.41637123       0.38159429       0.02631417      -0.40887022
C       24.29193047      -0.80226596      18.29507158       0.09003925       0.24749300      -0.23029877
N       16.13250334      -4.21699479      20.95218638      -0.03395035      -0.06091931       0.13999958
O       24.93187112      -2.18715371      25.84964862      -0.42031852       0.26923957      -0.13154761
C       23.71014244      -1.72308427      19.27901511      -0.00571263       0.17846696       0.33678639
N       21.29019805      -4.62339194      23.80869007       0.09951764      -0.03697882      -0.16529810
C       23.28720882      -3.52295949      17.58571134      -0.17711992      -0.00473315      -0.51764529
C       22.00428599      -3.10846298      16.86808455       0.14869014      -0.13956544       0.12140749
C       23.39669380      -1.47361203      20.59545351       0.08354555       0.12569535      -0.26709256
C       23.62241186      -0.21979320      21.37787656       0.16688261      -0.05582046      -0.01340981
C       24.91647585      -0.17948645      22.22351060      -0.11084897       0.01416367       0.27343331
C       25.01629839       1.19367363      22.89334463      -0.04809042      -0.21513492      -0.06334219
C       26.14028123      -0.40696197      21.33927918      -0.20328511      -0.05205467       0.17232480
C       24.90940070      -1.27036727      23.30079985       0.52693552      -0.12766843      -0.25637400
C       24.01458726      -1.48827159      25.47791643       0.25262072      -0.66603570       0.82798007
C       22.90761874      -0.99217373      26.39268109       0.25041039       0.12438906      -0.10335652
C       20.51167477      -2.16384651      28.56826104      -1.04566729      -0.35937384       0.44231717
C       20.18854878      -3.43687527      27.77652301      -0.00091226      -0.28705780       0.16561684
C       18.81881405      -4.90689882      29.17275576       0.06971491      -0.22795217       0.35130899
C       17.37295492      -5.33642101      29.47252816       0.13117018       0.32682745       0.04038683
C       17.10767854      -5.41936075      30.97866415       0.06310563      -0.02716110      -0.14746682
C       15.67725999      -5.86864474      31.26509296       0.19921478      -0.01803850      -0.03835862
C       17.34669517      -4.03357974      31.58091230       0.24496755      -0.21941929      -0.07681729
C       16.87679562      -6.39628299      27.41525695      -0.51403649       0.46272357      -0.62637983
C       16.75394695      -7.59737040      26.44740259       0.18064185       0.20608330      -0.21606861
C       18.12885354      -8.21736399      26.17472303      -0.13488344      -0.03325638      -0.10120598
C       18.09833962      -9.18228642      24.98557881       0.41666519      -0.09303842       0.26815894
C       18.36715014      -7.96900659      22.91218353       0.96764243      -0.53422391      -0.05166225
C       17.76332227      -7.05098989      21.98668554      -0.04169390       1.04035710      -0.83754448
C       17.47983224      -6.15276113      21.23537092      -0.02373873      -0.84749728       0.66262959
C       17.08842050      -5.11395629      20.28847618       0.02891498       0.02441259      -0.41307464
C       15.63083318      -3.13952025      20.12368174       0.01119670      -0.04899671      -0.00619120
C       16.58337332      -3.69799262      22.22681958       0.06535041       0.01523869       0.12635444
C       18.38370139      -4.43294733      19.79860345      -0.09779246       0.06647314       0.10610557
C       16.40003853      -5.83035367      19.11294792       0.13702443       0.03211495       0.01245600
C       16.17486355      -8.11794468      24.02155156      -0.42811510       0.25852546       0.14452974
C       16.08183592      -7.10486658      25.16076137       0.08432149      -0.05275525       0.00810159
C       17.61961690      -7.81385530      29.30860233       0.28195474      -0.38422647       0.07125054
C       20.14522152      -3.24522574      26.25690769       0.13159945      -0.48294854       0.04860974
C       19.58286248      -4.48779810      25.53822347      -0.36849600       0.36045963      -0.13708146
C       19.87381720      -4.41136835      24.03382485      -0.34925623      -0.22730701       0.22955213
C       21.67275774      -5.94289623      24.27990807      -0.11276971      -0.22003551       0.27671475
C       21.42694045      -5.96796691      25.78475385       0.18083921      -0.13613270      -0.16009435
C       22.09905837      -0.37707206      29.07018539      -0.22750917       0.14895639      -0.05549075
C       22.37297024       0.76145802      28.09030428       0.17849064      -0.18421761       0.15090793
C       23.40571303       0.30419911      27.06270754      -0.37859905       0.04157303      -0.03181506
C       22.77341187      -2.65901544      21.08723862      -0.19514980      -0.31528817      -0.38567566
C       22.73952327      -3.58622774      20.01576786      -0.14569333      -0.08136929       0.73344176
C       22.19286726      -4.85393469      20.18353087      -0.00397652      -0.12638864      -0.16568807
C       21.70372039      -5.19664198      21.42547484      -0.12629621      -0.13661584       0.13436133
C       21.73540751      -4.28950484      22.49627811       0.08487192       0.25221281       0.10162484
C       22.24319402      -3.01753515      22.32442256      -0.07247817      -0.13102316      -0.09334749
F       15.91816038      -8.57480595      27.01769320      -0.04586440      -0.12840758       0.01506692
H       28.30327471      -1.25794337      17.38586939       0.04237267       0.02977962       0.01870175
H       27.88717395      -0.76299710      19.03148088       0.05076470       0.03138400       0.04811803
H       28.53571092      -2.38002482      18.74238324       0.04709616      -0.04059786       0.04417217
H       26.09584502      -2.56875885      19.04352421       0.08541673       0.12903511      -0.25616839
H       28.02096808      -4.29541004      17.51941702       0.05850496      -0.03338211       0.00893043
H       26.49063481      -4.71826181      18.32515731       0.00360788      -0.04150879      -0.01187206
H       26.68924419      -4.99172649      16.57469410       0.05130085      -0.10756652       0.04542053
H       25.75449527       1.53593166      15.67834925      -0.03558143       0.14420116      -0.03591708
H       23.49465131       2.03903452      16.62737517      -0.03349941       0.05780756      -0.02920768
H       22.56598631       0.46305922      18.33110924      -0.03187133      -0.00347472       0.00878597
H       24.15880774      -3.16137112      17.03526199      -0.20205476      -0.22869260       0.18856561
H       23.34732372      -4.61254806      17.64489203       0.10540944       0.17431474      -0.01345614
H       21.97241253      -2.02926707      16.74469776      -0.02695749       0.04894771      -0.00634069
H       21.96341125      -3.57083489      15.88676079      -0.04907109      -0.01543798      -0.10584064
H       21.13560642      -3.42191505      17.44301416      -0.06623854       0.00770164      -0.01919000
H       23.65584814       0.62850407      20.69177322      -0.06140910       0.04143371       0.12068713
H       22.77697911      -0.08434037      22.05458456       0.00060189       0.14927954      -0.07707626
H       25.87493941       1.22936215      23.56064103       0.05332886       0.04806668       0.04642923
H       25.13302500       1.96788841      22.13987745      -0.00313236       0.06988434      -0.03771766
H       24.12002240       1.40135260      23.47054988      -0.02161116       0.07678628       0.04513405
H       27.05547948      -0.25221905      21.90484978       0.08806959       0.00961377       0.01454798
H       26.14349261      -1.42014101      20.95052421       0.06644139      -0.06586724      -0.09358006
H       26.12709011       0.28576371      20.50148019       0.04462331       0.00536438      -0.05629690
H       25.86912796      -1.30747743      23.82606261      -0.18245787       0.04451749      -0.14258027
H       24.71608012      -2.25383027      22.86231641       0.05960185       0.19407414       0.13025436
H       22.01383324      -0.78003990      25.80006333       0.11266857      -0.03068153       0.11787824
H       23.44534559      -2.35581875      27.80379764      -0.29038041       0.08650894      -0.11215052
H       20.94283879      -4.18685650      28.04370959      -0.20448936       0.18501657      -0.14023682
H       18.08345780      -3.55056648      27.85314332       0.12148933      -0.28359864       0.21932937
H       16.68425292      -4.60116890      29.04438547       0.19544950      -0.19706059       0.16465689
H       17.82848481      -6.10765230      31.42942359      -0.11211855       0.08103483      -0.08083586
H       14.97606482      -5.11071241      30.92027278      -0.06757548       0.01921626      -0.02414893
H       15.43477212      -6.80188517      30.76735664      -0.07304510      -0.08949188      -0.02691487
H       15.53637902      -6.00086629      32.33491284      -0.05015287      -0.00309567       0.03784425
H       17.18858163      -4.06456058      32.65491976      -0.02392857       0.05826932       0.06949920
H       18.36438879      -3.69772783      31.39306353      -0.03037473       0.05662322       0.04963062
H       16.66512946      -3.30598996      31.14942548      -0.08314029       0.07611833      -0.02235457
H       18.82498996      -7.40176237      25.97588312      -0.03949446      -0.14091228      -0.01827734
H       18.47812752      -8.75758182      27.05042717      -0.00319179       0.08306626       0.04888747
H       17.47619586     -10.05016741      25.21687525       0.07289597       0.03923289      -0.07492196
H       19.11148230      -9.51006923      24.74826529      -0.23571259       0.00553763       0.04314503
H       15.24276520      -3.53070286      19.18874508      -0.01778824       0.08810265      -0.04312966
H       14.81002050      -2.66404467      20.65982579       0.02304374       0.03311251      -0.08399004
H       16.38785428      -2.37032816      19.90999339      -0.04589319      -0.02993642      -0.04197474
H       16.94779812      -4.51081524      22.85147163      -0.05268320       0.16449777       0.03015269
H       17.38036367      -2.94416294      22.13295326      -0.04234318      -0.05228758       0.03224788
H       15.73403173      -3.23407832      22.72744056       0.07431268       0.00734187       0.01510678
H       18.90622429      -3.94872556      20.62159571       0.02956763      -0.01701416      -0.04521839
H       19.04973959      -5.18086441      19.37591515       0.02636661       0.01733452      -0.01678947
H       18.15450350      -3.69542510      19.03430262       0.00709586       0.05019519      -0.04494707
H       16.32022892      -5.17110042      18.25414689      -0.03915340       0.03919317      -0.06206777
H       16.98666903      -6.69974304      18.82259914      -0.01783529       0.06509029      -0.02351645
H       15.40957711      -6.15698274      19.41419282      -0.03794010      -0.02274343       0.01470757
H       15.78608715      -7.67813047      23.10253449       0.00976411      -0.17369901       0.20567105
H       15.59641403      -9.01314325      24.26907902       0.05862565       0.07992054      -0.15453431
H       15.03751671      -6.87713039      25.37747249       0.11770337       0.08559539       0.02330116
H       16.57524592      -6.17753830      24.86712896      -0.10635862      -0.12865346       0.02077799
H       17.20254730      -8.67015348      28.79108488       0.03738978       0.12530174       0.06365885
H       18.71246411      -7.84972065      29.29296096      -0.12183057      -0.07342011       0.07482831
H       17.29319936      -7.85716127      30.34350258       0.01717771      -0.02181977      -0.07919896
H       19.50611488      -2.39743799      26.00861377       0.02297269       0.07749635      -0.05904292
H       21.15411501      -3.05845867      25.89422038      -0.25723914       0.10611285       0.04196653
H       18.50004690      -4.54600565      25.69704528       0.32427056       0.05042152      -0.12353560
H       19.59730301      -3.42531441      23.65690499      -0.02873102      -0.09099672       0.02849340
H       19.26779191      -5.17240596      23.50622480       0.09386357       0.24538571       0.11371951
H       21.09384359      -6.75143074      23.80394293       0.17334244       0.17205599       0.11531406
H       22.73288774      -6.09823054      24.07521321      -0.07300088      -0.00826435       0.04346367
H       22.07485359      -5.23061840      26.27171069      -0.02329919      -0.07611060       0.01251795
H       21.62760945      -6.95733486      26.19769583       0.06138093       0.12861220      -0.03885276
H       21.29375674      -0.13124558      29.76164117       0.19450585      -0.07013241      -0.10511014
H       23.00371530      -0.61775729      29.63906906      -0.05023198       0.04218207      -0.01325823
H       22.74044097       1.62881999      28.63550470      -0.04338363       0.06063615      -0.01960271
H       21.44505393       1.03297716      27.58528495       0.01830837       0.03678422       0.07424977
H       24.36089391       0.10419176      27.55481099      -0.03210181      -0.00965318      -0.08162518
H       23.56144703       1.07000602      26.30325533       0.06273241      -0.03820495       0.00469746
H       22.14921473      -5.56354392      19.37080346      -0.00312120      -0.02049073      -0.02944254
H       21.27886464      -6.17833355      21.57941772      -0.02066530      -0.01371985       0.00411795
H       22.23476236      -2.33063257      23.15538062       0.01886979      -0.06340967       0.03734437
