151
Properties=species:S:1:pos:R:3:MACE_forces:R:3 energy:=T -221.336528352658=T gnorm:=T 0.009886093318=T xtb:=T 6.7.1=T (edcfbbe)=T MACE_energy=-90873.45892548143 pbc="F F F"
C       27.44164008      -2.35494225      17.98219264      -0.34646263      -0.13738795      -0.17797584
N       25.95811310      -0.20911814      16.86771804       0.25838675      -0.20698208      -0.05175057
O       25.47035150      -3.11079006      16.72543002       0.10633662       0.15249373      -0.00618371
C       25.91767545      -2.39622107      17.87569713       0.11358203      -0.08737497       0.21356591
N       22.93973975      -2.60592282      19.06219198       0.33851125       0.04747662       0.00698243
O       24.31191451      -1.04105808      24.44643338      -0.11337725       0.51173312      -0.40956505
C       25.63668751      -4.50926163      16.79692340      -0.00146877       0.10498898       0.08347987
N       22.83849061      -2.17206130      27.48755709       0.38759376      -0.24761691       0.12662724
O       19.88928225      -8.11710963      22.95225183      -0.76736761       0.11154671       0.05721532
C       25.34608679      -0.99690643      17.73977929      -0.29581885      -0.12979599       0.23119136
N       22.06640482      -1.61502763      28.51260951       0.98556259       0.46470677      -0.09505915
O       16.65626481      -5.13491287      26.68354546       0.11357869      -0.46732116       0.15740085
C       25.51157919       1.01901034      16.67840778      -0.07310981       0.22897535      -0.08407871
N       18.98792030      -3.60824419      28.46795042       0.14654497       0.61421606      -0.40623214
O       19.57780500      -5.46185716      29.61088508      -0.29954385       0.18979962      -0.08226375
C       24.42674563       1.54594025      17.36296472       0.02240376      -0.06018373       0.01081238
N       17.04496666      -6.33716274      28.53667913      -0.19919591       0.06625780       0.40779004
O       20.12160604      -5.52056541      26.29996476       0.01309991       0.14030030      -0.05604588
C       23.78349874       0.73465729      18.27888558       0.08646676      -0.09489912      -0.05804104
N       17.81431460      -8.49552479      23.80067422      -0.19578102      -0.23212132       0.07461755
O       20.13032741      -1.52055304      29.64549920       0.33667154      -0.06506852      -0.40793769
C       24.23115679      -0.57076429      18.47905102       0.13650941       0.22711531      -0.24945820
N       15.85074165      -5.32828787      20.07084330      -0.08462695      -0.09017729       0.07778852
O       24.89070319      -2.78041233      25.73894133      -0.41043678       0.61391849      -0.07086286
C       23.54914017      -1.43084050      19.45006641       0.07399417       0.17120821       0.36682024
N       21.26377286      -4.37078747      24.02043289       0.14330077       0.01726694      -0.32352588
C       22.54391514      -2.94563253      17.71748624      -0.28436181       0.11338100      -0.45035130
C       21.13356874      -2.43720429      17.42275525       0.17605193      -0.14280472       0.06660125
C       23.43978720      -1.26059367      20.81265210       0.02154096       0.17848100      -0.35406978
C       23.96568993      -0.13202898      21.64014305       0.14107167      -0.08201111      -0.00671442
C       25.32506698      -0.38858795      22.33193014      -0.04964728       0.01146547       0.25768610
C       25.79758340       0.91436222      22.98101775      -0.12336040      -0.16003158      -0.09300240
C       26.36001285      -0.85121043      21.30605723      -0.15797571      -0.02246945       0.20262617
C       25.20735430      -1.47278991      23.40967365       0.45042990      -0.26957778      -0.36211132
C       24.24688546      -1.77045022      25.54297337       0.18127743      -1.03317622       0.66657976
C       23.31215024      -1.14410660      26.56510995       0.17141539       0.05330568      -0.08649068
C       20.82062625      -2.04414989      28.77782882      -1.22439361      -0.24532620       0.47723403
C       20.31058139      -3.25758364      27.99719804       0.01218875      -0.24099336       0.06114726
C       18.71511659      -4.72539628      29.14740673       0.06951907      -0.39092923       0.31998409
C       17.21712538      -5.06131466      29.24323728       0.09608019       0.27862397      -0.01905513
C       16.69661160      -5.02440846      30.68286409       0.02671356      -0.01370335      -0.11383490
C       15.21718383      -5.40295291      30.73150755       0.25422398      -0.08005237       0.06248848
C       16.88695080      -3.60617182      31.22355730       0.16377802      -0.29028986       0.02764498
C       16.83654372      -6.23437052      27.21835551      -0.52682665       0.62043312      -0.71686176
C       16.81791849      -7.48050792      26.30585818       0.18565527       0.21837165      -0.24164450
C       18.23249702      -8.04759078      26.15319664      -0.12014686      -0.07330287      -0.18135000
C       18.30927389      -9.08156889      25.02449833       0.44620901      -0.07929578       0.31925241
C       18.67058351      -7.92304828      22.93322636       1.09844272      -0.49278677       0.03476598
C       18.08242271      -7.04945223      21.95324211      -0.00420535       0.90977246      -0.85273972
C       17.75625351      -6.20727226      21.15663459       0.12001482      -0.81888709       0.72172622
C       17.30013038      -5.16825288      20.23858087       0.15305563       0.41918962      -0.03799892
C       15.45164081      -6.63084714      19.57227949      -0.12528014      -0.10488389       0.01784490
C       15.18896652      -4.27896416      19.32254307       0.09576275      -0.00000019       0.03843426
C       17.62175536      -3.83635079      20.94130197       0.00966869      -0.01920482      -0.04957540
C       18.11360885      -5.26880781      18.93395471      -0.10089544      -0.03675854       0.04560339
C       16.41438952      -8.14751408      23.88693758      -0.40743346       0.24926653       0.10042477
C       16.21817210      -7.07518528      24.95464980       0.13608079      -0.01337248       0.05977412
C       17.43230554      -7.54338071      29.23640093       0.32234108      -0.38484319       0.15002936
C       20.25403716      -3.06484409      26.47757102       0.18331624      -0.43688562       0.05788343
C       19.62577359      -4.28883707      25.79024968      -0.42702757       0.33711787      -0.23159020
C       19.84711430      -4.21670785      24.27750350      -0.32242394      -0.23028903       0.32612202
C       21.71091649      -5.68241881      24.45416849      -0.10257481      -0.26456990       0.25048347
C       21.47412793      -5.77591256      25.95933775       0.24668225      -0.08379809      -0.10128046
C       22.67985750      -0.54643794      29.29017163      -0.17679696       0.15370995       0.01630399
C       23.15005483       0.57105379      28.36353647       0.13370871      -0.21862699       0.11445936
C       24.06569948      -0.01323658      27.29017111      -0.36257419       0.15249438      -0.04551507
C       22.71723281      -2.39134745      21.29611939      -0.31986853      -0.32453331      -0.38384314
C       22.43327475      -3.21193659      20.17709736      -0.04217710      -0.09126259       0.70493829
C       21.78687515      -4.43433658      20.31923949      -0.05174177      -0.11786201      -0.18695674
C       21.41424334      -4.83187215      21.58408500      -0.12349748      -0.12066299       0.07751054
C       21.64869083      -4.00776775      22.69513549       0.05571447       0.13017370       0.20781077
C       22.27710665      -2.78954336      22.55622185       0.01565542      -0.06398468      -0.11740563
F       15.98492646      -8.46945654      26.85732581      -0.07742166      -0.14804534       0.05055110
H       27.83761077      -3.35280325      18.15111156       0.04051431      -0.02980298       0.03307435
H       27.85153748      -1.95074015      17.06185388       0.05028223       0.01394204       0.03051972
H       27.73070727      -1.72210358      18.81418887       0.06458500       0.06058436       0.07750597
H       25.49864678      -2.87738243      18.77481413       0.08385337       0.15421256      -0.26410170
H       25.15265201      -4.91465062      17.69556474       0.05863056      -0.00727552      -0.11078021
H       25.15497830      -4.91055830      15.90673753       0.06340323      -0.09944039       0.11567455
H       26.69298075      -4.79486968      16.79663477      -0.09998735      -0.02277571      -0.00188048
H       26.05470440       1.59916050      15.94446536      -0.05952682       0.12729547       0.01069515
H       24.09672603       2.55448112      17.17781527      -0.01993868       0.08339889      -0.01268604
H       22.92595245       1.08990891      18.83267341       0.00465046      -0.00478552       0.00190143
H       23.25787882      -2.51236217      17.01535238      -0.16704428      -0.24156024       0.19943398
H       22.57718878      -4.03243455      17.61358298       0.11546533       0.13773118      -0.05037321
H       21.09749197      -1.35407220      17.51203913      -0.01227589       0.03263026      -0.01420061
H       20.84356284      -2.71676393      16.41508589      -0.08519828       0.00294828      -0.10177864
H       20.42489715      -2.86784893      18.12761956      -0.06076578       0.02621559      -0.02083417
H       24.08873642       0.74445650      21.00289840      -0.03619770       0.04727264       0.12429391
H       23.23316554       0.10426676      22.41405646       0.02540748       0.13882708      -0.08105518
H       25.93895502       1.68082953      22.22281692      -0.00910658       0.05150281      -0.02225102
H       25.06663603       1.26494302      23.70345796      -0.01219373       0.09564428       0.04538009
H       26.74497478       0.76091293      23.49048555       0.09499121       0.01924042       0.08286015
H       26.40630084      -0.14142025      20.48256264       0.03607505      -0.02359934      -0.03361829
H       27.34629550      -0.92018069      21.75973006       0.05817037      -0.01414451      -0.00381529
H       26.09458710      -1.82665385      20.90692577       0.04143649      -0.02981229      -0.07844080
H       26.18362256      -1.67669380      23.86059686      -0.15573859       0.06113899      -0.08859849
H       24.82591298      -2.40796321      22.99032979       0.08089644       0.17721343       0.10144784
H       22.44098951      -0.72475702      26.04936283       0.18348993      -0.08523482       0.08648065
H       23.63988118      -2.67760225      27.86790563      -0.24343899       0.12809532      -0.06290804
H       20.95779246      -4.10567610      28.24892502      -0.17147153       0.19629122      -0.14418976
H       18.23293635      -3.01635798      28.15685329       0.03624660      -0.30517315       0.12915136
H       16.65184723      -4.32812973      28.65900611       0.15753887      -0.19668755       0.24055920
H       17.28980524      -5.70700512      31.29817898      -0.07272612       0.07875882      -0.09046887
H       14.63503692      -4.68397370      30.15955115      -0.07448805       0.04506270      -0.04339095
H       15.03565804      -6.38954777      30.31550742      -0.04662830      -0.06800044      -0.01384711
H       14.86600984      -5.38919754      31.76119379      -0.06037828      -0.00799316      -0.00606882
H       16.29044367      -2.90105237      30.65233636      -0.07641344       0.10742231      -0.06773959
H       16.57054125      -3.55991033      32.26100863      -0.01793308       0.07100065       0.07673500
H       17.92759020      -3.29955220      31.16560504       0.03085900       0.08476232       0.05279390
H       18.89884563      -7.21182494      25.93739210      -0.02954846      -0.15432169      -0.00039195
H       18.56270906      -8.50742148      27.08067033      -0.03227190       0.07105734       0.05499846
H       17.69788224      -9.95396581      25.26651371       0.08824052       0.03918902      -0.07615308
H       19.34535782      -9.39016252      24.87181816      -0.26064788       0.01930164       0.02371040
H       14.39136239      -6.77477310      19.80517868       0.20019251      -0.03694303      -0.11406530
H       15.58463052      -6.73810318      18.48303801      -0.00347666      -0.01764352       0.13383363
H       16.02541126      -7.40830745      20.07537806      -0.18084860       0.01704867      -0.14451812
H       15.38147590      -3.31265783      19.77830786      -0.05152713       0.04559358      -0.08458996
H       15.48702731      -4.24895449      18.26391082      -0.02613529       0.05392885       0.03484677
H       14.11755674      -4.46844529      19.36537015       0.01550676       0.07302116      -0.04333371
H       18.65800082      -3.85096617      21.27988812      -0.09555293       0.05099963      -0.09129847
H       17.49319048      -2.99786900      20.26022600      -0.00331810       0.02610991       0.02175301
H       16.97111934      -3.70838831      21.80592132       0.03171377      -0.00878047      -0.06298537
H       17.92946576      -6.21585421      18.43051899       0.01075912       0.02152777      -0.01070474
H       17.85093433      -4.44988090      18.26726111       0.00865794      -0.00255134      -0.03231233
H       19.17250830      -5.20365972      19.17009055       0.01563642       0.02984722      -0.02958319
H       16.06541596      -7.77381545      22.92535947      -0.00902946      -0.16332333       0.18372477
H       15.85855329      -9.05136778      24.15018987       0.05510197       0.06479147      -0.14099547
H       15.15790961      -6.86086404      25.09130133       0.09971937       0.07436576       0.02091494
H       16.71143210      -6.15406046      24.63991530      -0.13245935      -0.14823330       0.02415381
H       17.05213415      -8.42232071      28.73230472      -0.01670830       0.09435370       0.03577916
H       18.52107585      -7.58910061      29.31771954      -0.16767070      -0.06077006       0.07166781
H       17.01777651      -7.52191208      30.24038731       0.00890377      -0.04118460      -0.05678094
H       19.64342051      -2.19189100      26.24314370       0.02599173       0.06168348      -0.05711034
H       21.25928887      -2.92392818      26.08719161      -0.30222363       0.13743797       0.06352589
H       18.55123381      -4.33066577      25.99863876       0.39280439       0.06893148      -0.14602527
H       19.51790398      -3.24768765      23.89927244      -0.01394015      -0.07949901       0.03095835
H       19.24911593      -5.00796750      23.78468951       0.10284810       0.22869924       0.08734595
H       21.18180721      -6.50316744      23.94337166       0.15446071       0.18776772       0.13076946
H       22.77922052      -5.77421670      24.25125103      -0.08985285      -0.02154566       0.03624353
H       22.13819221      -5.07000274      26.47226944      -0.05125521      -0.07781125      -0.00677547
H       21.67486120      -6.78610973      26.31983944       0.06481551       0.14807260      -0.04781096
H       21.93090286      -0.19525469      29.99885118       0.18263467      -0.08585038      -0.09426537
H       23.52994848      -0.96416929      29.84069991      -0.03852905       0.05283591      -0.00550439
H       23.67819926       1.32481912      28.94549074      -0.03579736       0.04289645      -0.02022107
H       22.28471593       1.03904973      27.89307170       0.01834181       0.02873025       0.05895660
H       24.96855974      -0.42313138      27.74975233      -0.01455840      -0.00286102      -0.07594041
H       24.35867000       0.75037955      26.57146380       0.05566276      -0.03794283      -0.00112678
H       21.59897451      -5.07168394      19.46770720      -0.01660528      -0.01586576      -0.00856902
H       20.92975502      -5.78794118      21.72179299      -0.02728962      -0.01754150       0.04023809
H       22.41883141      -2.17280515      23.42762057       0.01088851      -0.04406814       0.06333081
