151
 energy: -221.337751402255 gnorm: 0.003942737220 xtb: 6.7.1 (edcfbbe)
C           27.54095142343715       -1.71012749219745       17.93752267350704
N           25.61395422124663       -0.00137504475703       16.74586334029869
O           25.81549991988015       -2.91550635078957       16.66129597889475
C           26.07094334414630       -2.10892664614394       17.80987882803031
N           23.07543551027432       -2.89697524170992       19.06379065792656
O           24.14730747092779       -1.02156206259795       24.39886274506433
C           26.39459825060001       -4.20216896188795       16.69249882004368
N           22.84005087679093       -2.29471804335836       27.45287742159559
O           19.87778149045386       -8.10947817620730       23.06325126103824
C           25.19655729128104       -0.88082303147251       17.64556711102161
N           22.10383478280226       -1.79952492586718       28.53486618157525
O           16.69437101756556       -4.94901390020616       26.81525801950369
C           24.90215820096348        1.08840314639622       16.52346506480025
N           18.96364886467000       -3.69538581518005       28.48277947958094
O           19.48992554118100       -5.56143946227486       29.64232258550069
C           23.72619692458184        1.37699887404733       17.19881151937392
N           16.85566456130721       -6.24969218516608       28.63227963328098
O           20.29350731555675       -5.67335797970123       26.36464485052814
C           23.28625499789028        0.46944606027256       18.14348847164129
N           17.75575635352794       -8.28407971123270       23.86015127858570
O           20.19583524224533       -1.70366113931947       29.71057484474224
C           24.01805585457737       -0.69485094824749       18.38146870008529
N           16.06967224721372       -5.09029905513323       20.13417487032621
O           24.91676206036848       -2.71355440602936       25.65023001993276
C           23.51541930725677       -1.63241820628881       19.39151458098315
N           21.39686167893661       -4.52492466149164       24.06910905143398
C           22.90265843328996       -3.42854758422688       17.73463520045905
C           21.46510667780797       -3.25540784383061       17.24879105681842
C           23.33572864855464       -1.39924197544138       20.73753019224172
C           23.69866378690099       -0.18247225047812       21.52646339330489
C           25.05601985137374       -0.25493683932337       22.26466402450145
C           25.32799652821989        1.10011340444790       22.92320088877389
C           26.17336827823878       -0.57672826142933       21.27233249342794
C           25.06250515586829       -1.34873763259253       23.34120568771847
C           24.18385456513333       -1.76237460136163       25.48964857592856
C           23.25383600845443       -1.21485889642496       26.55942040070765
C           20.85306984603413       -2.20859065356541       28.80564544326150
C           20.29845398841777       -3.39473511057578       28.01088062862041
C           18.65679667383630       -4.77810132672554       29.20152383833118
C           17.14787975113325       -5.01736359602190       29.38141438825235
C           16.74366525074062       -5.01723852088499       30.85838146841466
C           15.23017702507218       -5.16596572212350       31.00445924151923
C           17.19667301495976       -3.69315735667504       31.47666733263143
C           16.73220086054596       -6.07922561320780       27.31079602083461
C           16.67645048887533       -7.28310832395583       26.34203575340307
C           18.05916609800056       -7.93910484866899       26.25427386964617
C           18.15234297526154       -8.92975070520478       25.08916498286793
C           18.67898624726078       -7.82090189388831       22.99886053336867
C           18.18348661593103       -6.95575004465193       21.96035126384800
C           17.93646321746889       -6.14381552109029       21.10573645256207
C           17.53735402709726       -5.15821420196600       20.10522866955206
C           15.41575488450665       -6.33983947522084       19.79847421906326
C           15.47653695121700       -3.99759556263551       19.39136723829995
C           18.15491622108192       -3.82275154910187       20.55368175577097
C           18.13704819990912       -5.56750632110358       18.74551691745736
C           16.38059676486451       -7.84418687142611       23.88436385298068
C           16.19564729702977       -6.78926376118357       24.97345694150163
C           17.07024200613192       -7.50657444067807       29.31584087029769
C           20.26127454451888       -3.21531435815382       26.49129846090796
C           19.72687020888848       -4.48955144964958       25.81588834327741
C           19.97033394015645       -4.43525567745390       24.30571593849043
C           21.91732709338226       -5.78850135499728       24.56179822763957
C           21.67325677203348       -5.82452980279882       26.06656422743020
C           22.75889899147590       -0.78147533765774       29.34473408284378
C           23.15043988063920        0.40155856461265       28.46405690742908
C           24.01019398581222       -0.09549967575144       27.30372264035222
C           22.73571788202843       -2.57796579136317       21.26748086052092
C           22.59243056543110       -3.49144654879947       20.19470067602201
C           22.04843911747522       -4.75657655713428       20.39257587208759
C           21.65690930753043       -5.10318657026027       21.66712155524830
C           21.77866978676709       -4.19937402323633       22.73369109438966
C           22.29284759637142       -2.93638257765958       22.53769108341192
F           15.74410305073962       -8.23367150796552       26.79602964541355
H           27.65069050381608       -0.98578662187304       18.73808908399480
H           28.15564971457709       -2.57719347757324       18.16306177041777
H           27.86792218565375       -1.26166253264856       17.00430220271166
H           25.75743708415147       -2.66705826563312       18.70823809081313
H           27.47788232251775       -4.16217463437500       16.55460088410515
H           26.16688734011124       -4.71101573414627       17.63565940983927
H           25.94537776129813       -4.74568319275259       15.86457138663555
H           25.30013765192419        1.75590015932829       15.77141769184542
H           23.17470115075142        2.27820136009772       16.98576498028178
H           22.37184683435222        0.63591419952017       18.69381031472687
H           23.58948184271805       -2.92047445260265       17.05623080579280
H           23.16415752178050       -4.49028414034828       17.75493614116449
H           21.20872559969234       -2.20080996915791       17.20008741995726
H           21.35969801618936       -3.68907676724805       16.25918456666395
H           20.77437965232441       -3.75029530154177       17.92659759071683
H           23.73989181926419        0.67829601232150       20.85644057193046
H           22.91859281000707       -0.00434274493292       22.26880844558472
H           24.51320771843279        1.36683199236617       23.59056536020227
H           26.24907307948503        1.06264775531902       23.49907876405496
H           25.42688055672999        1.87254962228149       22.16626880165837
H           26.16381454211220        0.14403115028893       20.45807231437611
H           27.14376550779516       -0.53837116222899       21.75990479327054
H           26.03630738591064       -1.57016230447829       20.85396090165787
H           26.06199769052903       -1.44929582392779       23.77755927120247
H           24.77860074502232       -2.31780383014753       22.92064749909787
H           22.35916543711902       -0.80039146323613       26.08611776840462
H           23.66646302048006       -2.79894632079406       27.77724173667930
H           20.91233272372662       -4.26629635363634       28.26971948888539
H           18.22203449631658       -3.10049695641000       28.14639303151688
H           16.59413298290891       -4.22092163562472       28.87530954454484
H           17.26220052239849       -5.82710132044410       31.37638660597855
H           14.96217943904194       -5.22913170419829       32.05513050155533
H           14.73123552122133       -4.30130078258841       30.57325201789466
H           14.86167711081458       -6.05359943504660       30.49848865880326
H           16.91893909406381       -3.66000424985469       32.52621380386422
H           18.27558553584724       -3.57534348684768       31.40146800970654
H           16.72972211752969       -2.85322791113997       30.96836695466123
H           18.80078688970524       -7.14841987509308       26.12848565452761
H           18.28946453376020       -8.46304699380067       27.17947422904584
H           17.49025821021897       -9.78207692138309       25.26401669929988
H           19.18052974029147       -9.27888743446206       24.98212999707891
H           14.39793163500842       -6.31004399699977       20.18902387591766
H           15.36124307450868       -6.51869364956848       18.71443446062623
H           15.94137733719805       -7.17096476419485       20.26439314198141
H           15.61569143129698       -4.08585607401857       18.30363303071104
H           14.40643755403833       -4.00334861711354       19.59554601151082
H           15.87936357454142       -3.04825028881048       19.72961896577203
H           18.11216583474285       -3.09213549278815       19.75150096495414
H           17.62579063863254       -3.44473842425174       21.42374006840514
H           19.19881584872710       -3.97771010172638       20.82260941202328
H           17.78029332810393       -6.54827824565152       18.44215529703106
H           17.86712587747184       -4.83760946137314       17.98646098880802
H           19.22008275684676       -5.60647614612598       18.82817665988746
H           16.10849398491238       -7.42429152462251       22.91614350769247
H           15.75110288690156       -8.71340305427456       24.09540324781539
H           15.14526565706447       -6.50912209300568       25.05132901609139
H           16.76740856457458       -5.89650815113339       24.71989350779505
H           18.12637062122736       -7.59590953994164       29.58207927284051
H           16.47409678627935       -7.52802529022783       30.22445702579794
H           16.76645126659365       -8.34214520647831       28.69868078938009
H           19.60234090879175       -2.38767519633361       26.23244604914887
H           21.26103434914636       -3.01857026291966       26.11489174448324
H           18.65484318035759       -4.58808355961877       26.01228076011484
H           19.60276407021018       -3.48941078611914       23.90393956416856
H           19.42083459763036       -5.25956099389765       23.81399719945545
H           21.43512530283977       -6.66200444632709       24.09151598811826
H           22.99016998716952       -5.82324310760253       24.36231776389691
H           22.25687606284992       -5.03032574321661       26.54537829948469
H           21.95428017030007       -6.78999659518684       26.48894193511331
H           22.06091818731699       -0.48915403622406       30.12870550814046
H           23.64973134486140       -1.22764248772833       29.80001476879108
H           23.70131689720121        1.13027582740839       29.05668147657335
H           22.24764759106051        0.87668265722699       28.07902923166048
H           24.95240145499477       -0.49815324431678       27.68378382838427
H           24.23299366620248        0.71548178638485       26.61201830067354
H           21.93978072932316       -5.46059076050337       19.58121852506305
H           21.23662227685223       -6.08191977421406       21.85198494398713
H           22.34278833961142       -2.25417866980540       23.37005590144397
