151
Properties=species:S:1:pos:R:3:MACE_forces:R:3 energy:=T -221.337263885739=T gnorm:=T 0.003873351561=T xtb:=T 6.7.1=T (edcfbbe)=T MACE_energy=-90873.4466724343 pbc="F F F"
C       27.68591178      -2.59260751      18.36526936      -0.33484473      -0.16961751      -0.14817828
N       26.42386111      -0.47639105      17.03250533       0.26837139      -0.17172568      -0.05485784
O       25.77938165      -3.42464763      17.05548681       0.08266251       0.14909617      -0.00740853
C       26.17302405      -2.60019564      18.15043831       0.12299208      -0.08701623       0.22274678
N       23.02649215      -2.69107760      18.90330758       0.33088584      -0.05136629      -0.06212855
O       24.05021240      -0.83808083      24.25895404      -0.16130441       0.52521675      -0.52321432
C       25.90145905      -4.81070116      17.28513112       0.00367706       0.14459343       0.03716655
N       22.52776451      -1.88735842      27.29997914       0.42990562      -0.23885249       0.09246636
O       19.75354036      -7.94533123      22.83981729      -0.69393721       0.17337510       0.11373666
C       25.66200769      -1.20658111      17.83164357      -0.35204008      -0.16737738       0.18442223
N       21.63485096      -1.34687124      28.23219205       0.86678634       0.64355430      -0.05129070
O       16.71983768      -5.30960851      27.02061113       0.08449410      -0.44167605       0.10464923
C       26.04229852       0.74753285      16.71225375      -0.08890676       0.24374061      -0.08018801
N       18.94761632      -3.81644805      28.35124856      -0.03042245       0.72321049      -0.51569347
O       19.92049156      -5.45654121      29.55933720      -0.27030733       0.06964657       0.01897430
C       24.86907215       1.32224327      17.17510797       0.03207016      -0.03898870       0.01180335
N       17.31895588      -6.61288411      28.74403377      -0.20084211       0.06690132       0.49038863
O       20.19876412      -5.56217003      26.14539060       0.04849801       0.14602310      -0.03080143
C       24.06401905       0.56743575      18.00889530       0.07732514      -0.14186283      -0.06825923
N       17.76708267      -8.43397247      23.82976031      -0.15008927      -0.27585774       0.13294449
O       19.67793432      -1.46904467      29.32855984       0.37104970      -0.07669827      -0.41897031
C       24.44940025      -0.72668787      18.35284023       0.14691993       0.28366972      -0.26678235
N       15.51650906      -5.05317176      20.39382713      -0.04411001      -0.05593814       0.06137502
O       24.76776851      -2.35717445      25.74539933      -0.40915955       0.42691847      -0.10787766
C       23.63410279      -1.51403267      19.28234211       0.06954942       0.31394292       0.42853857
N       21.16604228      -4.30620915      23.84253003       0.02398252      -0.04976601      -0.26757244
C       22.77023434      -3.10097912      17.54510427      -0.26629027       0.03368672      -0.43663559
C       21.39293432      -2.62772511      17.08316845       0.17043885      -0.14015180       0.07753168
C       23.42821950      -1.27600532      20.62332158       0.02563848       0.14253373      -0.36389546
C       23.82943187      -0.07093653      21.41444476       0.20079669      -0.09831422      -0.01942699
C       25.15477691      -0.15852003      22.20334905      -0.10202978       0.00099214       0.28201729
C       25.43464757       1.21194169      22.82693872      -0.07820032      -0.22308092      -0.04566398
C       26.30788878      -0.54723777      21.28032681      -0.18352649      -0.06160134       0.19880357
C       25.06492144      -1.21204047      23.31459987       0.44175031      -0.21942352      -0.27086777
C       24.00841958      -1.47386268      25.41313175       0.17839971      -0.84411012       0.79927201
C       22.92334092      -0.89556802      26.30625235       0.20711615       0.13075866      -0.03894823
C       20.46460240      -1.94053237      28.51388600      -1.00464186      -0.47116763       0.49073228
C       20.16477635      -3.26273524      27.80241675       0.03062222      -0.15341290       0.12974393
C       18.91672482      -4.87559411      29.16098486       0.12347647      -0.34219240       0.27673538
C       17.50335008      -5.37009462      29.50838367       0.17362667       0.32057125       0.06025583
C       17.30720398      -5.47153314      31.02326940      -0.05584474       0.04443645      -0.11829627
C       15.89785410      -5.94907895      31.36791327       0.27612572      -0.06195384      -0.10348774
C       17.54095144      -4.08324099      31.62321872       0.21427993      -0.18282128      -0.10496733
C       16.98583234      -6.43222601      27.45948135      -0.56004893       0.44462123      -0.64704550
C       16.93680999      -7.61926488      26.46934784       0.24776659       0.21866356      -0.25559263
C       18.35314696      -8.12229925      26.17145580      -0.18214397      -0.09512990      -0.12857914
C       18.38365510      -9.07071495      24.96965029       0.43889064      -0.02862978       0.28907132
C       18.52724628      -7.81658472      22.90839242       1.06507566      -0.45336969      -0.07081419
C       17.83327065      -6.99490303      21.95212747      -0.08159989       0.84384492      -0.82040287
C       17.44918002      -6.20587000      21.12671874       0.06254060      -0.73685762       0.73258475
C       16.94016506      -5.28310840      20.11650257       0.19643050       0.16187417      -0.28644852
C       14.79534687      -4.32197211      19.37242605       0.06480438      -0.04429506       0.00057354
C       15.25763474      -4.48338308      21.70184013      -0.04313125       0.04721198       0.05065418
C       17.81880800      -4.01478581      20.15987176      -0.12073307      -0.09945820       0.01403203
C       17.11979657      -5.98704445      18.76176553      -0.01884475       0.06374848       0.02681883
C       16.36788043      -8.15009822      24.04457267      -0.33607762       0.25987691       0.16107464
C       16.21654491      -7.15771105      25.19657388       0.06353167      -0.10521295       0.04221466
C       17.84499928      -7.83215386      29.31853301       0.32544658      -0.31541929       0.04285334
C       20.03249482      -3.10756287      26.28455493       0.09618051      -0.56265683       0.04145359
C       19.54894453      -4.41036937      25.62492611      -0.39170109       0.30548468      -0.23668122
C       19.74241545      -4.32863832      24.10569657      -0.23150942      -0.19651633       0.31083269
C       21.77164076      -5.55124650      24.28800175      -0.01241771      -0.31862362       0.34896815
C       21.57209027      -5.64727107      25.79779272       0.24804140      -0.11044336      -0.18808916
C       22.05380700      -0.13650868      28.92555371      -0.26155964       0.16667606       0.02089605
C       22.41189809       0.94305395      27.90812635       0.22625852      -0.20882533       0.14427252
C       23.46513840       0.39735737      26.94717819      -0.34479783       0.07051366      -0.14127277
C       22.66489203      -2.38002156      21.10531813      -0.20835508      -0.28027953      -0.30348901
C       22.42541306      -3.23586032      20.00160461      -0.08719570       0.00155903       0.64759448
C       21.71456094      -4.42332220      20.14507302      -0.03473838      -0.14368336      -0.15225939
C       21.28317455      -4.77230470      21.40581511      -0.11605602      -0.14170002       0.11314566
C       21.52996410      -3.94191942      22.50913726       0.05720895       0.23959416       0.23615208
C       22.18801954      -2.74025069      22.36317700      -0.05313943      -0.14792813      -0.12201379
F       16.18505421      -8.67128964      27.02301728      -0.07970953      -0.12495084       0.03935949
H       27.93724851      -1.88408496      19.14823829       0.07860514       0.02633685       0.05039304
H       28.03351986      -3.57904745      18.65986610       0.02902349      -0.01635389       0.05185474
H       28.17427762      -2.29234047      17.44382446       0.04327919       0.02706914       0.02550631
H       25.67147113      -2.97058364      19.06088670       0.11028353       0.13085484      -0.25339426
H       25.39774053      -5.29525393      16.45149691       0.05238548      -0.08622327       0.08898103
H       26.94724006      -5.12922635      17.30913302      -0.06721618      -0.02184878       0.01243262
H       25.41662938      -5.09576950      18.22641711       0.01938461      -0.02638170      -0.06320827
H       26.71482810       1.28547873      16.05877058      -0.03979127       0.12086911      -0.03461138
H       24.59698303       2.32570286      16.89116051      -0.00869905       0.04778569      -0.01757737
H       23.13432760       0.96272747      18.39098894      -0.01893737       0.01085168       0.03095944
H       23.54999464      -2.68835099      16.90252977      -0.14421547      -0.21672426       0.20918887
H       22.82811251      -4.19129969      17.49428044       0.12246017       0.16287770      -0.03105784
H       21.33833056      -1.54228342      17.11253342      -0.01101235       0.04239340      -0.00824246
H       21.20912363      -2.96100610      16.06652776      -0.07515372      -0.00182259      -0.09676021
H       20.61944903      -3.03098350      17.73318886      -0.06672066       0.02205755      -0.02685513
H       23.91554182       0.77819125      20.73471984      -0.05056695       0.03381128       0.12956609
H       23.03233030       0.14094404      22.12904644      -0.00029842       0.14888557      -0.09230901
H       25.54296701       1.96254288      22.04879312       0.01999618       0.07542999      -0.04846190
H       24.61714309       1.50393053      23.48037005      -0.01141620       0.07966838       0.03179812
H       26.35278878       1.18528344      23.40854627       0.07930759       0.03599486       0.06492798
H       27.24921564      -0.54648846      21.82407088       0.09102679       0.00601659       0.02098085
H       26.14626091      -1.53991336      20.87040843       0.02725858      -0.05268602      -0.06486168
H       26.38340249       0.15766957      20.45637194       0.02052478       0.01906428      -0.06980523
H       26.01725474      -1.29885067      23.84739280      -0.17138358       0.02573944      -0.12933589
H       24.81087914      -2.19344756      22.90344803       0.05575843       0.15113394       0.09098585
H       22.04767544      -0.65589844      25.69476198       0.13166366      -0.04106567       0.09485191
H       23.36213772      -2.24929587      27.76511511      -0.24824087       0.08373439      -0.09101644
H       20.96292472      -3.97182063      28.04774003      -0.22676358       0.20027165      -0.15669449
H       18.08334822      -3.37557946      28.06951143       0.17671274      -0.33434601       0.18069074
H       16.76783311      -4.66312008      29.11295073       0.16443585      -0.17007960       0.17137961
H       18.05917772      -6.14769873      31.43816944      -0.10436090       0.06946575      -0.07974531
H       15.78723662      -6.02480660      32.44596944      -0.07099036      -0.01861842       0.06103730
H       15.16623904      -5.23553356      30.99566613      -0.07541458       0.03403219      -0.00656218
H       15.67651305      -6.91711133      30.92784607      -0.07017117      -0.06843147      -0.00631358
H       16.80876820      -3.37434492      31.24346857      -0.06369531       0.06020701      -0.01052865
H       17.45299424      -4.12632927      32.70486644      -0.01968812       0.04193948       0.07712729
H       18.53249287      -3.71126070      31.37274877      -0.02745831       0.05561212       0.07243909
H       18.98198536      -7.25243865      25.97369655      -0.04547626      -0.14622014      -0.00812703
H       18.76052126      -8.63995221      27.03646054      -0.01266314       0.11094091       0.01178427
H       17.83530468      -9.98895899      25.19473639       0.09228602       0.06267767      -0.06703869
H       19.41708540      -9.31162723      24.71539251      -0.25405803      -0.01782243       0.05228091
H       13.74466609      -4.30345605      19.65903600       0.02227794       0.03978196      -0.07539147
H       15.13474698      -3.28135790      19.25963901      -0.03106241      -0.04547782      -0.02066783
H       14.87553002      -4.83076556      18.41663175      -0.04153993       0.06918622      -0.04468415
H       15.45227165      -3.40145148      21.74735074       0.01217590      -0.07762363       0.02291016
H       14.20894743      -4.65030890      21.94686830       0.03951547       0.05881840       0.05721733
H       15.87159361      -4.98021573      22.45062284      -0.07821934       0.05353083       0.01425904
H       17.76965050      -3.54363678      21.13886907       0.02577780       0.01706171      -0.02517950
H       18.85599005      -4.27847915      19.96799496      -0.01483407       0.07107012       0.00088969
H       17.48840703      -3.30676398      19.40439144       0.00056952       0.06330376      -0.03796891
H       18.11654416      -6.41872457      18.71078200      -0.01681677       0.05210747      -0.04098515
H       16.38956916      -6.78519988      18.66174600      -0.01222500      -0.01804480      -0.01103157
H       17.00747517      -5.28266314      17.94316406      -0.02192296       0.01953785      -0.06569833
H       15.93221806      -7.73471152      23.13503754       0.02190342      -0.15653745       0.16817399
H       15.86530617      -9.08926728      24.29101273       0.01631261       0.09304802      -0.12624108
H       15.16212481      -7.00528157      25.42854950       0.09658432       0.07852445       0.02547971
H       16.64277930      -6.19534182      24.91087926      -0.09798461      -0.14116704      -0.00306190
H       18.93758602      -7.80129068      29.31177776      -0.12933840      -0.08500556       0.07699867
H       17.51050112      -7.91688850      30.34830734       0.01467508      -0.04101241      -0.07534840
H       17.48486988      -8.70060828      28.77963279      -0.00552021       0.10735186       0.04499724
H       19.31109476      -2.32366013      26.05585674      -0.01484240       0.07949056      -0.04781018
H       21.00057256      -2.84676003      25.86369177      -0.22958132       0.08965115       0.07365301
H       18.49194673      -4.57595533      25.85912167       0.28025277       0.13431588      -0.12069683
H       19.29458996      -3.41009797      23.72368176      -0.01935875      -0.06455272       0.02298130
H       19.24341335      -5.18962665      23.62476471       0.06524857       0.21514914       0.07853088
H       21.32330045      -6.43251482      23.79902334       0.10439725       0.17942102       0.09081600
H       22.83895173      -5.52381996      24.06146328      -0.08007218      -0.02238907       0.04425819
H       22.14241575      -4.85118110      26.28997517      -0.04244675      -0.09297432      -0.01811006
H       21.90340950      -6.61650773      26.17492996       0.03793876       0.16444995      -0.05019741
H       21.22589387       0.16874222      29.56510580       0.21088687      -0.06908764      -0.08487837
H       22.92260862      -0.37382527      29.54945506      -0.05966834       0.03612350      -0.02262275
H       22.78967144       1.82138261      28.42862582      -0.04697477       0.04376293      -0.02131713
H       21.51793456       1.22542411      27.35094067      -0.01365210       0.04800094       0.05109639
H       24.38541518       0.16798735      27.49070025      -0.01900375      -0.00540423      -0.07023641
H       23.69426466       1.12289044      26.16771510       0.05789936      -0.02933509       0.02729171
H       21.52439504      -5.07265093      19.30358364       0.00314211      -0.01391800      -0.04340730
H       20.75419278      -5.70314258      21.55798764       0.00920892      -0.02882581      -0.00787489
H       22.33750083      -2.11546142      23.22733330       0.02293666      -0.01701295       0.02844175
