151
Properties=species:S:1:pos:R:3:MACE_forces:R:3 energy:=T -221.337021097383=T gnorm:=T 0.003987194844=T xtb:=T 6.7.1=T (edcfbbe)=T MACE_energy=-90873.41534165523 pbc="F F F"
C       27.35797093      -0.66415856      17.71287071      -0.24034314      -0.31553626      -0.09993735
N       24.99379366       0.44051396      16.69304766       0.30451434      -0.03097669      -0.12050363
O       25.92297495      -2.40539933      16.73194829       0.01178935       0.20327290      -0.00102873
C       26.04170016      -1.43980767      17.77506602       0.13839820      -0.00625761       0.13155138
N       23.18873293      -2.94930763      19.06070915       0.31584376       0.13882991      -0.06282393
O       24.19329318      -1.13256580      24.41362992      -0.20928024       0.50256606      -0.44064254
C       26.77551183      -3.52134614      16.86835373      -0.06680307       0.11504617       0.06550548
N       22.99644490      -2.51374864      27.45945639       0.40142363      -0.22980088       0.09712192
O       19.43898272      -8.32726069      23.26583726      -0.75053061       0.20406363       0.06917816
C       24.86505440      -0.49640123      17.62212988      -0.14979330      -0.28133266       0.27505954
N       22.23586732      -2.04678272      28.53595288       1.10737772       0.49463987       0.00538557
O       16.71755510      -4.83892842      26.82482936      -0.07946427      -0.43911747       0.12450236
C       24.01475277       1.30481461      16.50060452      -0.15554511       0.14905314      -0.05021974
N       19.04464470      -3.82424646      28.34925594       0.27874487       0.43225168      -0.54124635
O       19.39393583      -5.56262670      29.74770529      -0.23506022       0.24554425      -0.03688781
C       22.84745314       1.30539631      17.24941217       0.03348198      -0.06835734       0.02954434
N       16.68911646      -6.04810544      28.71403777      -0.23875930       0.13759222       0.40332454
O       20.26072794      -5.91687701      26.23982823       0.08092850       0.09902111      -0.05380822
C       22.70516092       0.33189723      18.22019584       0.12532108       0.02462518      -0.09623404
N       17.30388311      -8.40155600      24.05088724      -0.21901469      -0.25607356       0.09488333
O       20.32630283      -2.01096771      29.70614287       0.45201686       0.00516307      -0.44081219
C       23.71691494      -0.61016137      18.41528114      -0.00053939       0.27638985      -0.20441378
N       17.73638428      -5.55467215      19.07730714      -0.06160591      -0.11818766      -0.00962489
O       25.07169212      -2.82243768      25.59965107      -0.39550509       0.42254005      -0.01486486
C       23.48000872      -1.65241368      19.42464395       0.03612109       0.16967821       0.36502604
N       21.54562719      -4.84297096      23.99073788       0.14417927       0.00310699      -0.22398179
C       23.06440218      -3.43650863      17.70837733      -0.27310627       0.03162302      -0.47469691
C       21.66370409      -3.18878531      17.15215841       0.13733090      -0.08564646       0.12227235
C       23.32302806      -1.49330527      20.78343075       0.08572243       0.14076784      -0.27689690
C       23.59055155      -0.27196018      21.60052197       0.11954721      -0.05481849      -0.04188644
C       24.97505640      -0.23925138      22.29227541      -0.05238284       0.01007117       0.29619000
C       25.14083714       1.11732377      22.98204331      -0.08178248      -0.21263138      -0.04179705
C       26.09054241      -0.43365780      21.26694009      -0.18488907      -0.11517386       0.20296272
C       25.11005752      -1.35695166      23.33409248       0.46993643      -0.17119759      -0.38064354
C       24.29245358      -1.90330451      25.47832162       0.23188939      -0.86126120       0.60005223
C       23.36354626      -1.41303449      26.57417464       0.25099294       0.08184915      -0.09788727
C       20.99056208      -2.47865691      28.78558616      -1.28532862      -0.28242164       0.53569358
C       20.42132237      -3.63346691      27.94719423      -0.02497196      -0.18254654       0.13292533
C       18.63999769      -4.76104778      29.20745967       0.00777299      -0.36071315       0.27484719
C       17.11605927      -4.82055171      29.40169664       0.23503061       0.28731489       0.00407391
C       16.72631458      -4.70235590      30.87707629      -0.01779738       0.00850113      -0.16006858
C       15.20702721      -4.67352443      31.03515704       0.24457603      -0.18263497      -0.02954621
C       17.32888796      -3.40774767      31.42540812       0.16340935      -0.23866451      -0.02707465
C       16.60173745      -5.93423516      27.38337875      -0.35078763       0.51669459      -0.76620896
C       16.39479984      -7.17084358      26.48507805       0.26852789       0.19133253      -0.25659088
C       17.71097985      -7.95521687      26.40602372      -0.12089737      -0.02803717      -0.09604898
C       17.67781451      -9.01795121      25.30213990       0.38160131      -0.10923277       0.33526642
C       18.25866489      -7.97382762      23.20264205       1.07986395      -0.54189234       0.01913135
C       17.82510207      -7.05060833      22.18644785       0.15509803       0.90174744      -0.80472682
C       17.67530361      -6.18321868      21.36441546      -0.15431397      -0.83710615       0.64436068
C       17.39337574      -5.09785791      20.42984743      -0.07001314       0.32899386       0.02381725
C       19.09941403      -6.02596300      18.94958081       0.18867248      -0.04594850       0.03544193
C       17.41769148      -4.62027333      18.01713061      -0.01626849      -0.01743419       0.06337819
C       15.88790053      -4.80000591      20.52742873       0.09907275       0.00711801       0.00277981
C       18.19850192      -3.87387527      20.92061200       0.03768850      -0.08997835      -0.14580067
C       15.97132080      -7.84482394      24.08394759      -0.36741131       0.32150056       0.08580491
C       15.91835911      -6.70855286      25.10403674       0.11033807      -0.08127951       0.05762592
C       16.77174232      -7.28186605      29.46664795       0.15964565      -0.41144083       0.13499104
C       20.48367407      -3.46641655      26.42838248       0.09392842      -0.52795155       0.05489121
C       19.83997710      -4.66620947      25.71096237      -0.38017652       0.34844993      -0.23694168
C       20.13162855      -4.59761248      24.20766224      -0.35462867      -0.22015564       0.28079133
C       21.89271729      -6.17433466      24.45065156      -0.12966370      -0.24851394       0.22892897
C       21.61858816      -6.21826221      25.95313472       0.15064210      -0.16365815      -0.13533641
C       22.85035362      -1.01148156      29.35724615      -0.20856290       0.19230200       0.03116248
C       23.22072134       0.18620867      28.48547550       0.15108018      -0.21454898       0.10471886
C       24.09429382      -0.28173013      27.32401572      -0.39571383       0.12676883       0.02881451
C       22.86200995      -2.74696909      21.28188109      -0.22339065      -0.31321934      -0.39813043
C       22.79599384      -3.63281700      20.17774659      -0.08013673      -0.12831253       0.72658989
C       22.37343740      -4.94819503      20.34077341       0.02432841      -0.13126309      -0.14811722
C       21.98016833      -5.35759239      21.59699660      -0.11316586      -0.12700927       0.12778474
C       21.99181665      -4.47538021      22.68904163       0.08016566       0.16464122       0.16641336
C       22.43339675      -3.17673904      22.53592718      -0.05219169      -0.14102626      -0.13245596
F       15.39277758      -8.00373534      27.00892703      -0.08791374      -0.14111981       0.07697247
H       28.19842585      -1.30917025      17.95191320       0.06440510      -0.02773061       0.03042785
H       27.47999775      -0.25581994      16.71415334       0.03258226       0.02357534       0.03125622
H       27.33037634       0.15333138      18.42595311       0.04925967       0.06128298       0.05916815
H       25.95740072      -1.96326220      18.74079965      -0.00641560       0.12918696      -0.25004893
H       26.67836284      -3.96518269      17.86599660       0.01968158      -0.01201363      -0.07791184
H       26.45104592      -4.23685708      16.11638924       0.11318583      -0.05934573       0.06180216
H       27.82078052      -3.25648581      16.69090359      -0.03191256      -0.04988117       0.01423059
H       24.18244870       2.03074501      15.71711278      -0.08061050       0.09086243      -0.00754247
H       22.07685154       2.03758096      17.07137741      -0.03908162       0.04753478      -0.01421569
H       21.81146399       0.27904819      18.82492926      -0.01756351      -0.01803162       0.01396389
H       23.80689869      -2.93910595      17.08125750      -0.12031629      -0.26600257       0.19516159
H       23.28048550      -4.50705441      17.71607594       0.06972242       0.15843448      -0.02397950
H       21.56684555      -3.65118617      16.17479483      -0.05643544      -0.01221962      -0.10325752
H       20.91420950      -3.61300093      17.81671114      -0.04001444       0.00814051      -0.03020918
H       21.47766600      -2.12164428      17.05402270      -0.01651360       0.00856190      -0.00828714
H       23.52469529       0.60763098      20.95732927      -0.04607602       0.03470026       0.13094165
H       22.82600558      -0.19318580      22.37514998      -0.01470227       0.14897351      -0.06844160
H       24.33744015       1.27952619      23.69521695      -0.01086592       0.08370364       0.03714632
H       26.08954025       1.16088421      23.51196361       0.06707978       0.04483004       0.05472376
H       25.12071969       1.91584235      22.24584337      -0.00271386       0.07835120      -0.04593382
H       25.97123855       0.27024598      20.44807074       0.02890977       0.02738826      -0.07211399
H       27.06359691      -0.27618546      21.72415463       0.09282464       0.02761586       0.00897442
H       26.06077776      -1.44253898      20.86517965       0.04438789      -0.02212343      -0.09164976
H       26.12471789      -1.37552497      23.74683552      -0.18306204       0.02651301      -0.08914564
H       24.90502205      -2.33816130      22.89576020       0.05753202       0.22086460       0.12151738
H       22.44862742      -1.02186752      26.11958968       0.14231643      -0.06251780       0.09761570
H       23.84420107      -2.97611887      27.79265939      -0.27976174       0.12216928      -0.05843805
H       20.95761307      -4.54181633      28.24996439      -0.12722056       0.22758828      -0.13884030
H       18.36266903      -3.20850075      27.93304222       0.02288024      -0.30494284       0.19702146
H       16.65133297      -3.99220279      28.85795876       0.12967359      -0.20254090       0.19136123
H       17.15737095      -5.53762397      31.43387378      -0.04402957       0.07706430      -0.07504568
H       14.94440710      -4.63355678      32.08839808      -0.07360951       0.00852750       0.05539457
H       14.80298002      -3.79032486      30.54610263      -0.06508022       0.07448292      -0.03502086
H       14.73743073      -5.54751210      30.59280150      -0.09010000      -0.04270358      -0.01307809
H       17.07876389      -3.29659131      32.47640829      -0.01653382       0.05975998       0.05880734
H       18.41251829      -3.40741472      31.32665580      -0.03144717       0.07241345       0.05900196
H       16.94389616      -2.54640628      30.88452992      -0.04526945       0.06744805      -0.02190457
H       18.51787102      -7.24606743      26.20896977      -0.04959949      -0.11712948       0.00378681
H       17.91798752      -8.43653539      27.36010280      -0.00465278       0.10041950      -0.00132099
H       16.94754310      -9.79454269      25.54232979       0.10001337       0.03513768      -0.07055994
H       18.66709791      -9.46327466      25.18849875      -0.23171890       0.02879166       0.01155895
H       19.32622748      -6.72577620      19.75239679       0.06620065       0.05743795      -0.16954635
H       19.19591596      -6.54621488      17.99708465       0.04018768       0.02223817       0.04762092
H       19.84185568      -5.21411191      18.97862175      -0.06284105      -0.11115232       0.01845393
H       16.36605535      -4.35348344      18.05729423       0.01551797       0.07633706      -0.08287449
H       18.02639977      -3.70422449      18.04452974      -0.04482857      -0.00717579      -0.01875295
H       17.60448150      -5.11948089      17.06716388      -0.02996812       0.07324195       0.00158244
H       15.32534863      -5.58477617      20.02990201      -0.01347917      -0.02312496      -0.01056604
H       15.59405020      -4.76513092      21.57388022      -0.00124004       0.05639614      -0.01371385
H       15.65328632      -3.84108328      20.07567201      -0.03255310       0.05076757      -0.05065609
H       19.26225488      -4.10048077      20.96847369      -0.01741430       0.04428650      -0.00463496
H       18.04000037      -3.03152425      20.25277570      -0.00186137       0.08194178      -0.01196308
H       17.86440910      -3.59750596      21.91737519      -0.01271095       0.02168609       0.03199485
H       15.70158403      -7.47656999      23.09416025      -0.02803848      -0.14956177       0.22455506
H       15.28093662      -8.64022962      24.37633854       0.06344748       0.04802518      -0.15910205
H       14.90211405      -6.32434804      25.19593340       0.09677103       0.07105668       0.02224675
H       16.56632814      -5.89263481      24.78201503      -0.13629685      -0.10736519       0.03169217
H       16.39339178      -8.11819743      28.89328197       0.00867079       0.13673223       0.03685716
H       17.81075053      -7.45984429      29.75123682      -0.11956675      -0.04231130       0.05401621
H       16.16929665      -7.19382505      30.36616201       0.02219770      -0.05660000      -0.01207651
H       19.94241881      -2.56735139      26.13497825       0.01447723       0.11214975      -0.06378704
H       21.51916060      -3.38728392      26.10756252      -0.33865089       0.11298157       0.02115103
H       18.75655549      -4.65878462      25.87560877       0.35592676       0.02500393      -0.13906979
H       19.87843958      -3.60806382      23.82535728      -0.01940524      -0.07406068       0.03629100
H       19.51172385      -5.34824920      23.68285091       0.10639626       0.24322787       0.10737590
H       21.30305753      -6.96648936      23.95712699       0.16512103       0.18542922       0.12010300
H       22.95466345      -6.34591158      24.26590115      -0.08582273      -0.01452108       0.03883272
H       22.28120539      -5.51042407      26.46483050      -0.03553157      -0.09603342      -0.01526907
H       21.77974705      -7.22151092      26.35026833       0.05045376       0.14686169      -0.05010166
H       22.13041368      -0.73923937      30.12840205       0.18626036      -0.08758034      -0.12234440
H       23.74509502      -1.43150439      29.82886807      -0.03668740       0.04430460      -0.00780157
H       23.75343767       0.92176939      29.08639277      -0.04828332       0.05002653      -0.01039346
H       22.31005540       0.64591234      28.09943721       0.02615786       0.02094731       0.06617843
H       25.04527803      -0.66607688      27.70133443      -0.02084749       0.00589950      -0.07438073
H       24.29960861       0.53902966      26.63820213       0.05541615      -0.04380976      -0.00858743
H       22.33465494      -5.63861332      19.51133847      -0.02146100      -0.00165037      -0.02859626
H       21.62792240      -6.36848269      21.74349985      -0.00704557       0.00192118      -0.01176192
H       22.41960668      -2.51211316      23.38449332       0.00292039      -0.04167507       0.05823186
