151
Properties=species:S:1:pos:R:3:MACE_forces:R:3 energy:=T -221.337263885739=T gnorm:=T 0.003873351561=T xtb:=T 6.7.1=T (edcfbbe)=T MACE_energy=-90873.53302508352 pbc="F F F"
C       27.68591178      -2.59260751      18.36526936      -0.34359552      -0.11815243      -0.17016055
N       26.42386111      -0.47639105      17.03250533       0.28337937      -0.18064135      -0.02191870
O       25.77938165      -3.42464763      17.05548681       0.07988852       0.18545687      -0.01141042
C       26.17302405      -2.60019564      18.15043831       0.11312388      -0.09239426       0.24584330
N       23.02649215      -2.69107760      18.90330758       0.36045846       0.11537919      -0.04782476
O       24.05021240      -0.83808083      24.25895404      -0.11889163       0.45353341      -0.47375081
C       25.90145905      -4.81070116      17.28513112       0.01628400       0.12035540       0.06171447
N       22.52776451      -1.88735842      27.29997914       0.40288786      -0.20661805       0.15823101
O       19.75354036      -7.94533123      22.83981729      -0.76025151       0.09972678       0.14865123
C       25.66200769      -1.20658111      17.83164357      -0.35343735      -0.13307075       0.20437971
N       21.63485096      -1.34687124      28.23219205       0.90699725       0.61756992      -0.08915976
O       16.71983768      -5.30960851      27.02061113       0.05989872      -0.43137747       0.08576138
C       26.04229852       0.74753285      16.71225375      -0.07418891       0.22838447      -0.10302281
N       18.94761632      -3.81644805      28.35124856      -0.01183793       0.67822135      -0.48184487
O       19.92049156      -5.45654121      29.55933720      -0.29785382       0.10829204       0.00608926
C       24.86907215       1.32224327      17.17510797       0.00520316      -0.05809080       0.02074671
N       17.31895588      -6.61288411      28.74403377      -0.21765697       0.04424794       0.44043834
O       20.19876412      -5.56217003      26.14539060       0.06612508       0.13218796      -0.06253594
C       24.06401905       0.56743575      18.00889530       0.10583095      -0.11349703      -0.06005099
N       17.76708267      -8.43397247      23.82976031      -0.15604268      -0.24501902       0.13904752
O       19.67793432      -1.46904467      29.32855984       0.39024160      -0.02565991      -0.42845081
C       24.44940025      -0.72668787      18.35284023       0.14811356       0.23053347      -0.24766280
N       15.51650906      -5.05317176      20.39382713      -0.03909771      -0.07215327       0.07935386
O       24.76776851      -2.35717445      25.74539933      -0.36359244       0.40502122      -0.13169543
C       23.63410279      -1.51403267      19.28234211       0.07948588       0.23549284       0.40389039
N       21.16604228      -4.30620915      23.84253003       0.12817352      -0.00339578      -0.36412585
C       22.77023434      -3.10097912      17.54510427      -0.23569536       0.02999850      -0.47981370
C       21.39293432      -2.62772511      17.08316845       0.17976583      -0.12767276       0.07722303
C       23.42821950      -1.27600532      20.62332158       0.04306942       0.13835767      -0.34384698
C       23.82943187      -0.07093653      21.41444476       0.17954927      -0.05753852      -0.01490499
C       25.15477691      -0.15852003      22.20334905      -0.09428783       0.00186397       0.28573675
C       25.43464757       1.21194169      22.82693872      -0.10566714      -0.21462468      -0.04781776
C       26.30788878      -0.54723777      21.28032681      -0.20575637      -0.05245317       0.17538028
C       25.06492144      -1.21204047      23.31459987       0.48830987      -0.18953658      -0.29895095
C       24.00841958      -1.47386268      25.41313175       0.15133709      -0.80299008       0.74936223
C       22.92334092      -0.89556802      26.30625235       0.20550007       0.10218538      -0.08169912
C       20.46460240      -1.94053237      28.51388600      -1.15557993      -0.45319051       0.50373299
C       20.16477635      -3.26273524      27.80241675       0.04682397      -0.21122224       0.14035044
C       18.91672482      -4.87559411      29.16098486       0.14151714      -0.36917553       0.25975891
C       17.50335008      -5.37009462      29.50838367       0.14419069       0.34190132       0.02557361
C       17.30720398      -5.47153314      31.02326940      -0.02771695       0.00865837      -0.13009834
C       15.89785410      -5.94907895      31.36791327       0.26170889      -0.07332134      -0.09343033
C       17.54095144      -4.08324099      31.62321872       0.19438792      -0.18717377      -0.08740902
C       16.98583234      -6.43222601      27.45948135      -0.56184698       0.47413014      -0.63048913
C       16.93680999      -7.61926488      26.46934784       0.15741430       0.19350650      -0.23629407
C       18.35314696      -8.12229925      26.17145580      -0.12261761      -0.02891854      -0.10152251
C       18.38365510      -9.07071495      24.96965029       0.43136940      -0.04825533       0.26943714
C       18.52724628      -7.81658472      22.90839242       1.16008607      -0.44442934      -0.14299514
C       17.83327065      -6.99490303      21.95212747      -0.12387613       0.92436103      -0.84494356
C       17.44918002      -6.20587000      21.12671874       0.12944268      -0.79159784       0.79987510
C       16.94016506      -5.28310840      20.11650257       0.18803896       0.11536608      -0.35903575
C       14.79534687      -4.32197211      19.37242605       0.05069943      -0.02998445      -0.01536214
C       15.25763474      -4.48338308      21.70184013       0.00179347       0.00776182       0.06509311
C       17.81880800      -4.01478581      20.15987176      -0.12889678      -0.06871389       0.03623876
C       17.11979657      -5.98704445      18.76176553      -0.00777437       0.06995451       0.06179912
C       16.36788043      -8.15009822      24.04457267      -0.40399090       0.24607572       0.12759937
C       16.21654491      -7.15771105      25.19657388       0.10223349      -0.04371069       0.05026674
C       17.84499928      -7.83215386      29.31853301       0.29807895      -0.38179874       0.07162666
C       20.03249482      -3.10756287      26.28455493       0.16518106      -0.45859498       0.07864888
C       19.54894453      -4.41036937      25.62492611      -0.42640625       0.28641166      -0.19375253
C       19.74241545      -4.32863832      24.10569657      -0.27861049      -0.24313316       0.31690490
C       21.77164076      -5.55124650      24.28800175      -0.05805266      -0.29542010       0.31832473
C       21.57209027      -5.64727107      25.79779272       0.18527251      -0.08407641      -0.13265561
C       22.05380700      -0.13650868      28.92555371      -0.20973782       0.15376691      -0.02985155
C       22.41189809       0.94305395      27.90812635       0.17189264      -0.19252517       0.15265732
C       23.46513840       0.39735737      26.94717819      -0.37561128       0.08458182      -0.08829015
C       22.66489203      -2.38002156      21.10531813      -0.22968949      -0.32344689      -0.33673960
C       22.42541306      -3.23586032      20.00160461      -0.14969191      -0.09371048       0.69722994
C       21.71456094      -4.42332220      20.14507302      -0.00553884      -0.10710011      -0.14014854
C       21.28317455      -4.77230470      21.40581511      -0.10740493      -0.13944825       0.12724274
C       21.52996410      -3.94191942      22.50913726       0.03513655       0.19367954       0.21281948
C       22.18801954      -2.74025069      22.36317700      -0.03729730      -0.10158513      -0.11705025
F       16.18505421      -8.67128964      27.02301728      -0.03971110      -0.12564341       0.03631933
H       27.93724851      -1.88408496      19.14823829       0.05712818       0.03781287       0.05489144
H       28.03351986      -3.57904745      18.65986610       0.03101205      -0.03291554       0.04755752
H       28.17427762      -2.29234047      17.44382446       0.05417143       0.00427756       0.02919158
H       25.67147113      -2.97058364      19.06088670       0.12449856       0.12050839      -0.28395073
H       25.39774053      -5.29525393      16.45149691       0.05097608      -0.10154689       0.08839472
H       26.94724006      -5.12922635      17.30913302      -0.06990313      -0.01626058       0.00562179
H       25.41662938      -5.09576950      18.22641711       0.01882899      -0.02002637      -0.07546967
H       26.71482810       1.28547873      16.05877058      -0.04189236       0.12022491      -0.03244603
H       24.59698303       2.32570286      16.89116051      -0.00979618       0.05942978      -0.02488808
H       23.13432760       0.96272747      18.39098894      -0.01432782       0.00210694       0.02765397
H       23.54999464      -2.68835099      16.90252977      -0.19029716      -0.23095504       0.18338086
H       22.82811251      -4.19129969      17.49428044       0.10087318       0.15469295      -0.02953541
H       21.33833056      -1.54228342      17.11253342      -0.01195011       0.03872201      -0.01372740
H       21.20912363      -2.96100610      16.06652776      -0.07286131      -0.00467493      -0.09440386
H       20.61944903      -3.03098350      17.73318886      -0.06313337       0.01504369      -0.02481143
H       23.91554182       0.77819125      20.73471984      -0.04353030       0.04390400       0.13093713
H       23.03233030       0.14094404      22.12904644       0.01624929       0.15225629      -0.08458222
H       25.54296701       1.96254288      22.04879312       0.00810526       0.05570922      -0.04810462
H       24.61714309       1.50393053      23.48037005      -0.00681626       0.08303331       0.03630308
H       26.35278878       1.18528344      23.40854627       0.07245599       0.03170675       0.06783510
H       27.24921564      -0.54648846      21.82407088       0.08996354      -0.00587417       0.00819479
H       26.14626091      -1.53991336      20.87040843       0.06380369      -0.04880072      -0.07410607
H       26.38340249       0.15766957      20.45637194       0.02621933       0.00698916      -0.05573011
H       26.01725474      -1.29885067      23.84739280      -0.16658500       0.03451331      -0.11461941
H       24.81087914      -2.19344756      22.90344803       0.03369709       0.16434073       0.09151652
H       22.04767544      -0.65589844      25.69476198       0.13954804      -0.03412647       0.10596482
H       23.36213772      -2.24929587      27.76511511      -0.25993500       0.09516616      -0.10670565
H       20.96292472      -3.97182063      28.04774003      -0.20571104       0.17307392      -0.13810541
H       18.08334822      -3.37557946      28.06951143       0.15449846      -0.33150767       0.20586000
H       16.76783311      -4.66312008      29.11295073       0.19236882      -0.17723932       0.16018109
H       18.05917772      -6.14769873      31.43816944      -0.09638053       0.06625600      -0.06904960
H       15.78723662      -6.02480660      32.44596944      -0.06326514      -0.01823593       0.06012884
H       15.16623904      -5.23553356      30.99566613      -0.08696443       0.04536758      -0.01359994
H       15.67651305      -6.91711133      30.92784607      -0.06915638      -0.06085686      -0.00874838
H       16.80876820      -3.37434492      31.24346857      -0.05485047       0.04971306      -0.00690721
H       17.45299424      -4.12632927      32.70486644      -0.01446212       0.05796773       0.06332385
H       18.53249287      -3.71126070      31.37274877      -0.02889149       0.05385011       0.07598777
H       18.98198536      -7.25243865      25.97369655      -0.04214882      -0.17248822      -0.01338126
H       18.76052126      -8.63995221      27.03646054      -0.02148996       0.08457205       0.01875992
H       17.83530468      -9.98895899      25.19473639       0.07577300       0.05610719      -0.07535986
H       19.41708540      -9.31162723      24.71539251      -0.24401252      -0.01276616       0.04474047
H       13.74466609      -4.30345605      19.65903600       0.02209262       0.03760875      -0.07045769
H       15.13474698      -3.28135790      19.25963901      -0.02391156      -0.04147517      -0.03844944
H       14.87553002      -4.83076556      18.41663175      -0.04807384       0.08380845      -0.03608975
H       15.45227165      -3.40145148      21.74735074       0.00781082      -0.05603021       0.02790426
H       14.20894743      -4.65030890      21.94686830       0.04534072       0.05477390       0.04411930
H       15.87159361      -4.98021573      22.45062284      -0.11644543       0.09503443       0.01307766
H       17.76965050      -3.54363678      21.13886907       0.03079861       0.02784799      -0.01232747
H       18.85599005      -4.27847915      19.96799496      -0.03649750       0.03077466      -0.00242596
H       17.48840703      -3.30676398      19.40439144      -0.01135925       0.05866589      -0.03616259
H       18.11654416      -6.41872457      18.71078200      -0.01263623       0.05402827      -0.03452397
H       16.38956916      -6.78519988      18.66174600      -0.01773294      -0.02191880      -0.00823586
H       17.00747517      -5.28266314      17.94316406      -0.02928788       0.02516528      -0.07904882
H       15.93221806      -7.73471152      23.13503754       0.02313737      -0.17763167       0.20161390
H       15.86530617      -9.08926728      24.29101273       0.03982771       0.06980150      -0.14619676
H       15.16212481      -7.00528157      25.42854950       0.09773809       0.08704215       0.01873976
H       16.64277930      -6.19534182      24.91087926      -0.09808443      -0.13228562       0.01334539
H       18.93758602      -7.80129068      29.31177776      -0.11879510      -0.07742566       0.07313828
H       17.51050112      -7.91688850      30.34830734       0.02601300      -0.02720951      -0.06178907
H       17.48486988      -8.70060828      28.77963279       0.01575296       0.12846358       0.06039002
H       19.31109476      -2.32366013      26.05585674      -0.00338586       0.08489608      -0.05730339
H       21.00057256      -2.84676003      25.86369177      -0.25002525       0.13273915       0.07896444
H       18.49194673      -4.57595533      25.85912167       0.32739123       0.09342783      -0.16258251
H       19.29458996      -3.41009797      23.72368176      -0.00888062      -0.06243556       0.02397919
H       19.24341335      -5.18962665      23.62476471       0.06850147       0.22620465       0.08455489
H       21.32330045      -6.43251482      23.79902334       0.13578703       0.18567244       0.11179985
H       22.83895173      -5.52381996      24.06146328      -0.08961281      -0.01879692       0.04523045
H       22.14241575      -4.85118110      26.28997517      -0.03207082      -0.08690828      -0.00702264
H       21.90340950      -6.61650773      26.17492996       0.04171174       0.16813019      -0.05762107
H       21.22589387       0.16874222      29.56510580       0.20864513      -0.07583275      -0.08843045
H       22.92260862      -0.37382527      29.54945506      -0.04561355       0.04347451      -0.01734665
H       22.78967144       1.82138261      28.42862582      -0.03935184       0.04161740      -0.02046859
H       21.51793456       1.22542411      27.35094067       0.01211772       0.04249161       0.06478426
H       24.38541518       0.16798735      27.49070025      -0.01722237      -0.00831384      -0.07587959
H       23.69426466       1.12289044      26.16771510       0.05633936      -0.04268836       0.01701937
H       21.52439504      -5.07265093      19.30358364      -0.01310936      -0.02256142      -0.03731999
H       20.75419278      -5.70314258      21.55798764      -0.00342467      -0.01642814       0.01148228
H       22.33750083      -2.11546142      23.22733330      -0.00628094      -0.04869923       0.04871354
