151
Properties=species:S:1:pos:R:3:MACE_forces:R:3 energy:=T -221.336675518840=T gnorm:=T 0.004331513250=T xtb:=T 6.7.1=T (edcfbbe)=T MACE_energy=-90873.44833939496 pbc="F F F"
C       27.97092341      -2.28989389      18.44568316      -0.33924310      -0.17317037      -0.15770038
N       26.68010135      -0.19459545      17.08167637       0.27195829      -0.18558024      -0.07043861
O       26.14310452      -3.14093194      17.04898774       0.11389588       0.14598348       0.00242160
C       26.46607951      -2.33118474      18.17980197       0.12143117      -0.10885445       0.18296538
N       23.28640971      -2.46330317      18.83977876       0.35626568      -0.06758670      -0.04633400
O       24.19081635      -0.98120553      24.33350162      -0.15580030       0.59717178      -0.50893399
C       26.14728710      -4.52907033      17.30334133      -0.02904730       0.19699774       0.07375892
N       22.60701632      -2.18587982      27.26174995       0.46731658      -0.28236302       0.05438434
O       19.77422010      -8.20693733      23.08019725      -0.75575373       0.11528299       0.14099531
C       25.93307036      -0.94182651      17.87953409      -0.32918260      -0.18978303       0.17233489
N       21.79254276      -1.68145950      28.27884870       0.91853520       0.50486191       0.02258732
O       16.61497358      -5.39136920      26.52072039       0.11409299      -0.44359178       0.23887086
C       26.28038134       1.02601279      16.77283427      -0.06841562       0.24110683      -0.06196350
N       18.74284134      -3.68193969      28.03215962       0.17893776       0.52127939      -0.48794143
O       19.39338415      -5.35775538      29.39228336      -0.25352108       0.18022823      -0.02689898
C       25.11042738       1.58556672      17.26084714       0.00811275      -0.03579335       0.02355530
N       16.84908115      -6.38355337      28.52019809      -0.23361066       0.20747992       0.44235041
O       20.02189842      -5.53233352      25.83572096       0.01736533       0.16975381      -0.03348752
C       24.32126449       0.81338101      18.09466757       0.09889260      -0.08515292      -0.07838648
N       17.77711223      -8.83606715      23.96878458      -0.14692271      -0.30849241       0.07541739
O       19.82792936      -1.69474358      29.36554023       0.41698039      -0.02785637      -0.47370199
C       24.71793307      -0.48404476      18.41250744       0.12184716       0.29005192      -0.23018564
N       15.80781032      -4.66706891      21.26699764      -0.00867871      -0.00884360      -0.13163867
O       24.82991529      -2.65596009      25.68078854      -0.41113831       0.48522342      -0.07932609
C       23.88933981      -1.31050360      19.29756572       0.05370606       0.25822470       0.42221190
N       21.20643921      -4.26938637      23.63306540       0.04288592       0.07950670      -0.28313752
C       23.05998325      -2.77139631      17.44838624      -0.21437650       0.11284666      -0.45993384
C       21.86993602      -1.98292688      16.90326557       0.14045049      -0.17935982       0.09684957
C       23.63890922      -1.13738851      20.63964504       0.05095670       0.18459026      -0.33524278
C       24.04811312       0.00509601      21.51391842       0.18082205      -0.10621358      -0.01322958
C       25.33751013      -0.18952093      22.34276874      -0.09454575      -0.01244725       0.27661688
C       25.63195672       1.11217963      23.09302165      -0.08409259      -0.21264704      -0.06195773
C       26.51146132      -0.53641991      21.42894521      -0.20830723      -0.06411688       0.19797400
C       25.18084386      -1.33116684      23.35503621       0.45470860      -0.21973088      -0.28713618
C       24.12808814      -1.69828540      25.43567435       0.17453512      -0.95069035       0.73524214
C       23.11564155      -1.11854443      26.40727586       0.22083287       0.09759153      -0.00237233
C       20.54742243      -2.14043875      28.47644781      -1.11821555      -0.33304252       0.46526520
C       20.07339949      -3.31083458      27.60614794      -0.02163522      -0.16231142       0.16080586
C       18.50552045      -4.69341628      28.86868281       0.01696993      -0.29074287       0.20909489
C       17.02060390      -5.02700744      29.06131208       0.15332602       0.24407390       0.03797490
C       16.57063446      -4.80691810      30.50792920      -0.05840518       0.00707039      -0.14074874
C       15.09436743      -5.15951599      30.67722949       0.28906486      -0.10557155      -0.01398592
C       16.79361585      -3.33127855      30.84693418       0.24055535      -0.24223851       0.01995505
C       16.72398257      -6.42561927      27.18761039      -0.47913967       0.37751629      -0.80300814
C       16.73206187      -7.76153536      26.41492482       0.23730706       0.22143879      -0.28691545
C       18.18691893      -8.23143754      26.28124726      -0.12582491      -0.07705601      -0.10195043
C       18.35517111      -9.31053604      25.20544350       0.42297506       0.03818142       0.28964342
C       18.54310869      -8.14231224      23.09940886       1.13659721      -0.42762239      -0.00761833
C       17.83898631      -7.30555191      22.16389462      -0.05799879       0.83724322      -0.81777772
C       17.43883084      -6.46537722      21.39682817       0.05011622      -0.73530465       0.76651580
C       16.82395284      -5.44890306      20.54293641      -0.01711468       0.30578654      -0.50356175
C       16.32827233      -3.92413493      22.39917568       0.10786893       0.02259403       0.16131605
C       14.64184220      -5.43242055      21.66975869      -0.00257026      -0.01635486      -0.00544707
C       17.92962590      -4.51585279      20.02090885      -0.00819539      -0.02286005       0.17702350
C       16.18698933      -6.15864079      19.33632698      -0.01333805       0.00510598       0.11429314
C       16.34810030      -8.65538933      24.06849527      -0.40287329       0.26842793       0.10599976
C       16.04003973      -7.54205086      25.06488768       0.14368085      -0.03073834       0.02513986
C       17.24682575      -7.48584087      29.37134541       0.33492764      -0.32847348       0.17528157
C       20.06798087      -3.07546606      26.09563096       0.08262002      -0.56425958      -0.00165496
C       19.50351534      -4.30002235      25.34826016      -0.39471275       0.29400315      -0.24165581
C       19.77752991      -4.16409178      23.84564257      -0.26580964      -0.22909608       0.29143476
C       21.66890743      -5.58329957      24.04330859      -0.06144269      -0.38625227       0.29325406
C       21.39697679      -5.71883406      25.53933577       0.24249462      -0.13621860      -0.19086962
C       22.36815889      -0.65151248      29.13214210      -0.22183849       0.18099838       0.06617214
C       22.84973900       0.51643239      28.27559582       0.18707608      -0.23979077       0.10576455
C       23.81385065      -0.00295605      27.21168225      -0.33014850       0.10126368      -0.10921015
C       22.84535994      -2.25340280      21.03984497      -0.25492580      -0.26796744      -0.33355708
C       22.64026385      -3.05456684      19.88851996      -0.11318807      -0.03366309       0.67172172
C       21.92337862      -4.24471841      19.95816253      -0.05519242      -0.13121489      -0.17206625
C       21.44943576      -4.64792690      21.18749792      -0.12241284      -0.13197054       0.07036911
C       21.64587259      -3.86388204      22.33373417       0.05727341       0.21342138       0.31949985
C       22.30988330      -2.65793296      22.26047329      -0.04046828      -0.15423059      -0.15610651
F       15.99491028      -8.74804727      27.09184527      -0.08171697      -0.14563918       0.05164216
H       28.17628113      -1.61932573      19.27421510       0.08211364       0.02839035       0.05496200
H       28.34141661      -3.28045874      18.69527760       0.02098662      -0.01990946       0.05559116
H       28.47605010      -1.92605020      17.55694181       0.03824815       0.02621634       0.02870070
H       25.94072886      -2.73750342      19.05867816       0.10476403       0.13406670      -0.21944216
H       25.43211033      -4.78072574      18.09600121       0.05239602      -0.03111233      -0.05700735
H       25.84638042      -5.00163285      16.37207578       0.01717685      -0.10371551       0.07784202
H       27.13868862      -4.88794532      17.58956403      -0.03652872      -0.03662806      -0.02033928
H       26.93610709       1.57349773      16.10969500      -0.04731374       0.12074969      -0.01645720
H       24.82608199       2.58960166      16.99161481      -0.01316596       0.05168555      -0.01288753
H       23.39406215       1.20046294      18.49135674      -0.02650208      -0.01974056       0.03250930
H       23.96072845      -2.53509060      16.87786167      -0.20095971      -0.18290044       0.18845048
H       22.87045834      -3.84315781      17.36379861       0.14788707       0.13087334      -0.00076675
H       22.08524291      -0.91696612      16.92234243      -0.00970637       0.02185689      -0.01162630
H       21.66718957      -2.27880995      15.87892118      -0.06704004       0.02489554      -0.11214270
H       20.98627796      -2.17065426      17.50864685      -0.06851322       0.01133832      -0.02003577
H       24.19557161       0.88835377      20.88978779      -0.05495438       0.02692010       0.12917011
H       23.23083123       0.20764022      22.20879489       0.01902590       0.14623193      -0.07743395
H       24.79669054       1.37380821      23.73702392       0.00012593       0.07760512       0.02746739
H       26.52299654       1.00349061      23.70681560       0.07667252       0.03594426       0.06247878
H       25.79540609       1.92239381      22.38833716       0.03284029       0.08880595      -0.04952946
H       26.34447630      -1.49797212      20.95325305       0.03833721      -0.05344464      -0.07948893
H       26.62063189       0.21830681      20.65463476       0.02522393       0.02575847      -0.07473339
H       27.43656670      -0.58744542      21.99735691       0.08946587       0.00080768       0.02455300
H       26.12523418      -1.52152658      23.87527373      -0.17239217       0.05663307      -0.12576023
H       24.87029097      -2.25608532      22.86096378       0.08431970       0.14851784       0.11318678
H       22.27617424      -0.69513292      25.84769860       0.12051509      -0.07205616       0.08553254
H       23.39644185      -2.70533248      27.65109817      -0.25599187       0.13648036      -0.05655284
H       20.71928954      -4.16300271      27.85217208      -0.18538107       0.23275809      -0.16650468
H       17.97437565      -3.15171099      27.65067383       0.08812682      -0.32299215       0.16150856
H       16.42094598      -4.37771605      28.41678710       0.14041888      -0.12033207       0.22724459
H       17.19152625      -5.40870962      31.17662900      -0.07928855       0.04566884      -0.09687124
H       14.78795648      -4.98546062      31.70467693      -0.07895025      -0.00183441       0.05470820
H       14.48845579      -4.53359270      30.02584246      -0.06600005       0.03501553      -0.02863380
H       14.89562101      -6.19753799      30.42716792      -0.07294757      -0.06884529      -0.00905707
H       17.83579017      -3.04811787      30.71139288      -0.03120288       0.09086402       0.04389109
H       16.18402186      -2.69880468      30.20565150      -0.06627067       0.07283881      -0.04519149
H       16.51710222      -3.14106203      31.87971830      -0.02988859       0.05319301       0.07066153
H       18.79528452      -7.36077852      26.02318393      -0.05691082      -0.13656639       0.00630033
H       18.53328000      -8.61566711      27.23953909      -0.02217883       0.10625459       0.00491433
H       17.84757089     -10.23223923      25.49935219       0.09708382       0.06754249      -0.07159975
H       19.41520575      -9.50968621      25.04171281      -0.23756638      -0.03065528       0.04678490
H       16.72433938      -4.56895322      23.20027249      -0.03680870       0.05239992      -0.11632084
H       17.11281883      -3.24567686      22.07812608       0.00838485      -0.00559920       0.06119358
H       15.51831777      -3.32880330      22.81732848       0.06660826       0.00396782       0.00278439
H       13.95840203      -4.75978532      22.18469871      -0.00407954      -0.06733051      -0.01920424
H       14.13002722      -5.82584315      20.79684809      -0.03284360      -0.05403122       0.06719805
H       14.88738347      -6.25973225      22.35234245      -0.02963813       0.02229255      -0.04619600
H       18.57179942      -4.15863936      20.82151006      -0.01920526       0.01500635      -0.05579459
H       18.55638160      -5.05376583      19.31564421       0.04128458      -0.00189048       0.00680266
H       17.47229124      -3.66850317      19.52027753      -0.04980730       0.06028332      -0.05661187
H       15.54442988      -6.97696716      19.64708138      -0.02046224       0.02142241      -0.03205504
H       15.60951490      -5.43767968      18.76563654      -0.04262270       0.04960849      -0.05044357
H       16.96949510      -6.57046758      18.70509863      -0.00711803      -0.01373871       0.00846091
H       15.94101755      -8.40575842      23.08767784       0.02364569      -0.12130781       0.20008095
H       15.91266464      -9.59903428      24.40734045       0.03759103       0.08120377      -0.13296989
H       14.96649021      -7.46872058      25.24042406       0.06477197       0.08425919       0.00849963
H       16.39026964      -6.58777561      24.66894424      -0.10614614      -0.20286497       0.01804395
H       18.33042178      -7.46639264      29.51140561      -0.17481208      -0.05052679       0.07625751
H       16.77249876      -7.37140859      30.34223383       0.02009685      -0.07003099      -0.05837213
H       16.93836957      -8.43628362      28.95445658      -0.03313114       0.11841611      -0.00215770
H       19.44582429      -2.21357696      25.85621654      -0.01475611       0.07847111      -0.04725324
H       21.08260603      -2.89831604      25.74687957      -0.25681499       0.09880987       0.07261030
H       18.42542091      -4.39038431      25.52251745       0.27104946       0.11174205      -0.07852119
H       19.43579383      -3.18879464      23.49591831      -0.04120808      -0.08325837       0.00306652
H       19.22339745      -4.95431846      23.30556083       0.05654755       0.20893906       0.08007889
H       21.15712577      -6.40228955      23.50928298       0.15131968       0.20232796       0.12487829
H       22.74229201      -5.65530684      23.85967899      -0.07562124      -0.00816446       0.03736427
H       22.00779376      -4.99034561      26.08571180      -0.04041075      -0.09753148      -0.03122617
H       21.63347494      -6.72567990      25.88670890       0.04690679       0.13955734      -0.04922735
H       21.59494176      -0.34669253      29.83688946       0.18988301      -0.07636814      -0.10670570
H       23.20736377      -1.08785063      29.68522667      -0.06241009       0.04747421      -0.01883459
H       23.34495249       1.25069440      28.90924843      -0.04860377       0.04844699      -0.02027510
H       21.99233107       0.99104845      27.79706481      -0.00559416       0.03658778       0.05289511
H       24.70749449      -0.41562572      27.68712713      -0.02706199       0.00802502      -0.07312220
H       24.11745803       0.79767421      26.53856476       0.05802572      -0.03260501       0.00967030
H       21.75351082      -4.85444909      19.08384409       0.01304079      -0.02676677      -0.03773341
H       20.91832139      -5.58546490      21.27743697      -0.00878831       0.00237423      -0.00756021
H       22.41678657      -2.06212854      23.15114312       0.04513449      -0.02719334       0.04568138
