151
Properties=species:S:1:pos:R:3:MACE_forces:R:3 energy:=T -221.336619485292=T gnorm:=T 0.005658324913=T xtb:=T 6.7.1=T (edcfbbe)=T MACE_energy=-90873.53338950912 pbc="F F F"
C       27.94685166      -1.75361847      18.45141672      -0.29330056      -0.22287912      -0.15482215
N       26.31534770      -0.05414428      16.91891423       0.29586569      -0.14958230      -0.01381319
O       26.29133165      -3.05649586      17.19957636       0.04930589       0.26092000      -0.03017201
C       26.47074787      -2.07990242      18.22494126       0.11442201      -0.06832585       0.19073627
N       23.23317947      -2.62371473      18.87269379       0.33321411       0.10254771      -0.02841650
O       24.08825172      -0.95148682      24.28602221      -0.16284748       0.54088742      -0.49224820
C       26.49438468      -4.38474165      17.62710422       0.00350272       0.10232365       0.10288655
N       22.75315188      -2.26388144      27.28993819       0.39700665      -0.24987004       0.06601733
O       19.35770314      -7.98969904      22.88834571      -0.94402675       0.09115963       0.13307950
C       25.71127870      -0.83612523      17.80104196      -0.31925550      -0.18589807       0.22064162
N       22.01411021      -1.77908148      28.37400055       1.04352760       0.48005366      -0.03428905
O       16.60806673      -5.13651601      27.13530229       0.11820718      -0.42699496       0.02706838
C       25.71657013       1.05251654      16.51670013      -0.08577267       0.20888689      -0.11222383
N       18.97373196      -3.79344163      28.29233893       0.13243732       0.40882219      -0.58853488
O       19.87876418      -5.20805121      29.79774491      -0.26137473       0.13725517      -0.06077631
C       24.48009562       1.46214520      16.99083616      -0.00757997      -0.05865415       0.03260755
N       17.25877959      -6.38841022      28.88180169      -0.23030434       0.01939827       0.44132040
O       19.99268124      -5.47870218      25.96485807       0.06281645       0.14811777      -0.12333013
C       23.83909026       0.65086987      17.90936547       0.16073396      -0.05810596      -0.05416135
N       17.44090910      -8.44036781      24.03063434      -0.14784304      -0.24522177       0.16049646
O       20.10352701      -1.76485199      29.55360446       0.40356523       0.01392079      -0.47900669
C       24.44505013      -0.53405935      18.32319450       0.09543292       0.21606475      -0.21344168
N       16.93146908      -4.95462392      19.35848488      -0.15266874       0.01687918      -0.05872754
O       24.87881698      -2.65080540      25.51874566      -0.37514851       0.43705432      -0.06182444
C       23.73629926      -1.40384295      19.27036683       0.04028360       0.22962100       0.34581386
N       21.12562247      -4.28912918      23.70030295       0.11580928      -0.01471678      -0.21345690
C       23.15220555      -3.09432163      17.51191994      -0.18483272       0.03188548      -0.50895620
C       21.87283348      -2.60962387      16.83310781       0.14512823      -0.12638812       0.11198242
C       23.43945140      -1.17155804      20.59408616       0.08822373       0.14626569      -0.30061152
C       23.76187212       0.03282589      21.42023571       0.16892721      -0.06286854      -0.00003724
C       25.06344304      -0.04206987      22.25154065      -0.09012861      -0.01029094       0.29573392
C       25.22646022       1.26902759      23.02558408      -0.10200765      -0.20561310      -0.06337755
C       26.26973211      -0.24477501      21.33711259      -0.21866140      -0.07246531       0.17094319
C       25.02958595      -1.21788449      23.23666486       0.49828589      -0.14843521      -0.32051491
C       24.13660055      -1.70532117      25.36400298       0.17355390      -0.90019561       0.68228883
C       23.20527699      -1.17017271      26.43667014       0.24983785       0.09900022      -0.08199620
C       20.76861017      -2.21050605      28.62546085      -1.22994987      -0.28493552       0.50543915
C       20.24228236      -3.35636452      27.75170614       0.02930185      -0.24931254       0.20780031
C       18.89639753      -4.69622916      29.27249990       0.05062468      -0.26409288       0.30305911
C       17.46435156      -5.13116689      29.61746838       0.13170669       0.30449779       0.06239137
C       17.24520447      -5.19270946      31.13125610      -0.00614627       0.00438682      -0.13015861
C       15.84883094      -5.70629674      31.47520963       0.26770081      -0.05300265      -0.06868366
C       17.42930983      -3.77995581      31.68981226       0.24260123      -0.18199849      -0.11236566
C       16.87992496      -6.24578548      27.60495847      -0.53492178       0.51704966      -0.60994366
C       16.77504600      -7.46979626      26.66797377       0.13970990       0.19315882      -0.28267170
C       18.16962558      -7.99817349      26.31649484      -0.12117882      -0.01589156      -0.11599456
C       18.13109268      -9.00717230      25.16498942       0.44708797      -0.07389921       0.24843316
C       18.13240477      -7.88306359      23.01847442       1.33879313      -0.42152495       0.00140842
C       17.34661968      -7.16349648      22.05279192      -0.35250048       0.72944847      -0.88324746
C       16.75991102      -6.51514705      21.22396203       0.62524995      -0.57005656       0.73666635
C       16.03244135      -5.71894564      20.23656643      -0.49933370       0.23936774      -0.30331882
C       17.73477698      -5.77061980      18.46699700       0.05002537      -0.09545382       0.01116389
C       17.78147477      -4.01754726      20.06956026       0.13615487       0.04508801       0.14661950
C       15.15315655      -6.67375705      19.41162492       0.11364439       0.06265376       0.00538056
C       15.10472672      -4.75300083      20.99705950       0.11922092      -0.01213344      -0.00782120
C       16.06039465      -8.13315761      24.32632214      -0.36564830       0.25826382       0.13862075
C       16.00198686      -7.05814049      25.41042705       0.09216968      -0.05416852       0.06326311
C       17.82163433      -7.59005944      29.46203044       0.29739080      -0.35788464       0.05723879
C       20.09963397      -3.03835254      26.26273464       0.09311791      -0.44509718       0.06170531
C       19.49278002      -4.23184994      25.49868733      -0.33344223       0.29207613      -0.09329275
C       19.72047166      -4.08337038      23.98672499      -0.34347387      -0.24854055       0.21976176
C       21.52029635      -5.63184989      24.09050861      -0.12137733      -0.26735377       0.28304736
C       21.34152500      -5.72812496      25.60006069       0.15043286      -0.11621429      -0.17192628
C       22.66843775      -0.79317805      29.22193089      -0.19769690       0.16539894       0.00910753
C       23.10813913       0.39932168      28.37678842       0.13780825      -0.21668261       0.11324251
C       23.98002653      -0.09333066      27.22431938      -0.38650437       0.11692837      -0.00470665
C       22.70668841      -2.31158417      21.04157280      -0.21534959      -0.32573377      -0.41151994
C       22.59089259      -3.19097241      19.93601183      -0.18702556      -0.09886215       0.71494868
C       21.93345287      -4.41113343      20.05117286       0.00155053      -0.08993475      -0.18802121
C       21.43101843      -4.76393221      21.28387672      -0.15071991      -0.16359276       0.12445554
C       21.55077328      -3.91024339      22.39163583       0.06464889       0.22161565       0.14877465
C       22.15655190      -2.67656322      22.26823362      -0.07342429      -0.11734589      -0.10004897
F       16.03925760      -8.48678592      27.30166734      -0.03935018      -0.14954469       0.03913904
H       28.03845057      -0.95952059      19.18529682       0.04540731       0.05478420       0.05425581
H       28.48219751      -2.62832376      18.81088385       0.02300090      -0.03612317       0.04599067
H       28.38028842      -1.42290458      17.51289979       0.04725118       0.01266475       0.03649673
H       26.01978504      -2.47146768      19.15057936       0.11440259       0.10387510      -0.25667567
H       25.79360052      -4.64674079      18.43057928       0.06610912      -0.02019435      -0.09010953
H       26.30836104      -5.00962262      16.75705108       0.02514111      -0.09037431       0.10941656
H       27.51683623      -4.54858473      17.98160854      -0.08104366      -0.02243387      -0.04761275
H       26.26322676       1.63492631      15.78793391      -0.06226559       0.11511763      -0.02588141
H       24.03238546       2.37997486      16.64648712      -0.01321806       0.05909630      -0.03250795
H       22.86798020       0.91372616      18.30250483      -0.03037406      -0.00163480       0.01279186
H       24.02679436      -2.74136678      16.96148953      -0.21121939      -0.22528972       0.18362737
H       23.17628515      -4.18666969      17.52696993       0.11308659       0.15685966      -0.01399186
H       21.00045350      -2.95457720      17.38363283      -0.06112874       0.01380468      -0.01580672
H       21.85416588      -1.52303270      16.79630326      -0.01196193       0.02961668      -0.01651259
H       21.82520502      -2.99403768      15.81876243      -0.05751311      -0.00277907      -0.09429954
H       23.84435672       0.90233111      20.76554947      -0.05741937       0.04941748       0.12551229
H       22.93233236       0.19867022      22.10987087       0.01969426       0.13928495      -0.05985892
H       24.34387141       1.47055022      23.62711980       0.01253346       0.06424470       0.03040034
H       26.08990645       1.21353430      23.68502933       0.06120901       0.04782144       0.05204972
H       25.37365552       2.09404062      22.33407766       0.00131477       0.07324776      -0.03901512
H       26.23283085      -1.22909694      20.88277373       0.08155843      -0.05619421      -0.09568128
H       26.27386233       0.50218607      20.54754700       0.03214631       0.00855240      -0.06020553
H       27.19526778      -0.15949868      21.90085126       0.08223062      -0.00683518       0.01364911
H       26.01391694      -1.36845719      23.69276998      -0.18349819       0.06128959      -0.09472934
H       24.74196421      -2.14601300      22.73456773       0.07257346       0.17149270       0.12950649
H       22.32978658      -0.71646173      25.96315133       0.12581343      -0.07477345       0.10280997
H       23.56688953      -2.79011305      27.61451388      -0.27114054       0.13289039      -0.05726308
H       20.94261346      -4.18950172      27.89336998      -0.21648495       0.22925069      -0.13026632
H       18.12794027      -3.43506318      27.87617390       0.09839681      -0.23757262       0.20481385
H       16.75446166      -4.41489097      29.19395598       0.19474370      -0.18357900       0.15165116
H       18.01377789      -5.83028258      31.57673657      -0.11350401       0.06850846      -0.08183061
H       15.09698653      -5.03108806      31.07310831      -0.09139650       0.03960476      -0.02393575
H       15.66609373      -6.69573203      31.06705435      -0.06647099      -0.07535995      -0.01199821
H       15.72986832      -5.74960074      32.55449304      -0.06594317      -0.01428043       0.05158219
H       17.37833522      -3.80024720      32.77433988      -0.02499287       0.06129287       0.07121356
H       18.39377461      -3.36834520      31.39726576      -0.02649625       0.05858848       0.07129492
H       16.65059269      -3.11840413      31.31791783      -0.06714158       0.05350798      -0.01529288
H       18.78164181      -7.14010358      26.03429640      -0.04768355      -0.17948058       0.01825090
H       18.62704251      -8.47234468      27.18059070      -0.02257880       0.06820076       0.03685226
H       17.60292260      -9.91425778      25.47279176       0.08356748       0.06613316      -0.08540196
H       19.14850611      -9.26079620      24.86194972      -0.24415876      -0.00207058       0.05852138
H       18.42850215      -6.43786744      19.00262041      -0.07710386       0.04089397      -0.05590175
H       17.09650090      -6.36444920      17.82000040       0.07869956      -0.03744715      -0.02265708
H       18.31963795      -5.10238083      17.83639455       0.01095607      -0.06006231       0.01698103
H       18.36181324      -3.45861309      19.33696370      -0.00615390       0.01165711       0.06046256
H       17.17837119      -3.30931281      20.62951982       0.06975138       0.02565457       0.01956338
H       18.48734474      -4.50862152      20.75833238      -0.10453941       0.06241625      -0.08204903
H       15.72873114      -7.50039048      19.00698205      -0.01330987       0.00683360      -0.01830141
H       14.37530749      -7.08897939      20.04646016       0.00361246      -0.01013171       0.01237081
H       14.69172925      -6.11851509      18.60034195      -0.03433008       0.02865606      -0.05858817
H       15.63371690      -4.22877164      21.78816168      -0.01466602       0.02152528      -0.03193602
H       14.69518523      -4.03226123      20.29617123      -0.03990677       0.04204907      -0.04741432
H       14.29131225      -5.31000955      21.45347962      -0.00278079      -0.02087692       0.02353289
H       15.56019765      -7.78177497      23.42444626       0.01607991      -0.16809070       0.22529028
H       15.57630209      -9.04777628      24.67813778       0.02286707       0.06050647      -0.15341089
H       14.96794829      -6.84779169      25.68445175       0.09941072       0.07190275       0.01558946
H       16.44935505      -6.13573923      25.03744802      -0.12003042      -0.11741824       0.04090747
H       17.59370222      -7.61394760      30.52307074       0.00780714      -0.03292823      -0.06635794
H       17.39575504      -8.47627274      29.00620551       0.03346899       0.12462448       0.05108581
H       18.90948613      -7.58403316      29.34999083      -0.12705661      -0.07946958       0.09087151
H       19.45007151      -2.17385712      26.12798719       0.01177942       0.08821638      -0.06012401
H       21.08187546      -2.82474631      25.84743793      -0.23153771       0.10307132       0.07509914
H       18.41701324      -4.29738739      25.69972626       0.27081118       0.05448427      -0.10503798
H       19.43337829      -3.08078234      23.66649574      -0.01871754      -0.07335152       0.02576564
H       19.08660359      -4.81872282      23.45411300       0.09363910       0.19883801       0.08461749
H       20.91271616      -6.41435891      23.60477662       0.19732356       0.18399134       0.12485341
H       22.56878596      -5.78194191      23.83025635      -0.07444734       0.00370856       0.05374946
H       22.01245236      -5.01399358      26.09012902      -0.03125056      -0.08768953       0.00766113
H       21.55405999      -6.73699107      25.95675115       0.05137328       0.14083915      -0.03552128
H       21.95394381      -0.50353860      29.99204711       0.17401806      -0.08462615      -0.12969852
H       23.53636444      -1.26619084      29.69462009      -0.04143225       0.05719526      -0.00046635
H       23.66265126       1.10116024      28.99797841      -0.04218501       0.04801360      -0.01187331
H       22.22626729       0.90474148      27.98183661       0.02332772       0.02638408       0.06255594
H       24.90132401      -0.53455251      27.61349218      -0.02965684       0.01114906      -0.07841843
H       24.24247022       0.72750410      26.55830003       0.05717171      -0.04323956      -0.01092776
H       21.82557353      -5.07579820      19.20687747      -0.00440315      -0.02387627      -0.01362061
H       20.93769795      -5.71869847      21.40597260      -0.00018185       0.00259519       0.00919443
H       22.21335220      -2.03006941      23.12855443       0.03381415      -0.04740502       0.06551939
