151
Properties=species:S:1:pos:R:3:MACE_forces:R:3 energy:=T -221.336843495587=T gnorm:=T 0.004556483805=T xtb:=T 6.7.1=T (edcfbbe)=T MACE_energy=-90873.52547547313 pbc="F F F"
C       27.63391478      -1.65501370      17.85508441      -0.28217370      -0.25451232      -0.12056712
N       25.58489881      -0.17932308      16.63363932       0.29695014      -0.08986601      -0.07924850
O       25.97602872      -3.12837484      16.78955712       0.04779757       0.19749017      -0.00893989
C       26.19780201      -2.17744788      17.82887392       0.13984933      -0.04843636       0.18033724
N       23.23996543      -3.13327565      19.04236194       0.36086798       0.16581072      -0.04986184
O       23.98100426      -0.85462592      24.29048115      -0.18458502       0.42116282      -0.55215642
C       26.65912059      -4.35187576      16.95356003      -0.03488986       0.06411469       0.07149984
N       22.61336948      -1.83670083      27.41270535       0.41886195      -0.16137199       0.15342737
O       19.73680433      -8.12018664      22.84712657      -0.63663632       0.10846215       0.06991674
C       25.22882809      -1.03768127      17.57874453      -0.23797531      -0.19568680       0.24113919
N       21.67795685      -1.33845575      28.32411238       0.89490495       0.67361263      -0.03330574
O       16.75175710      -5.24586419      26.72988477       0.03770750      -0.39035461       0.09346746
C       24.80742354       0.85373004      16.36623299      -0.11812007       0.16227872      -0.07347299
N       18.98307641      -3.80901645      28.32303671       0.08070176       0.59453565      -0.45138125
O       19.72930542      -5.47270188      29.65491490      -0.32271378       0.10110946      -0.04784164
C       23.62549719       1.10783510      17.04498079       0.00980203      -0.06552496       0.02936432
N       17.19421771      -6.53624577      28.51048191      -0.21544919       0.06077396       0.37673281
O       20.27250796      -5.74368141      26.34117610       0.06418191       0.09595737      -0.00498399
C       23.24032096       0.21310337      18.02550482       0.11453661      -0.03013127      -0.10846578
N       17.65824365      -8.53025991      23.66428871      -0.19052302      -0.27272574       0.06137005
O       19.67608820      -1.48703687      29.32632446       0.42477108      -0.02747207      -0.41042969
C       24.03796098      -0.89728564      18.30440925       0.05203558       0.24116415      -0.23160855
N       16.42851958      -3.95638694      21.17213889      -0.02405357      -0.08357170       0.13125786
O       24.90103842      -2.13758982      25.88275576      -0.42022832       0.35280092      -0.14368970
C       23.59037836      -1.83404230      19.34000293       0.02611508       0.19208644       0.37634790
N       21.51408608      -4.71394526      24.04942961       0.13757744      -0.04066741      -0.25688515
C       23.02483844      -3.65599346      17.71551129      -0.29071356       0.00275919      -0.48896753
C       21.61954856      -3.31782864      17.21980521       0.18333697      -0.10382672       0.09621569
C       23.38745962      -1.57723730      20.67780815       0.06127685       0.13318009      -0.32438660
C       23.65130696      -0.29921625      21.40695602       0.14941717      -0.05569806      -0.02072868
C       24.99605611      -0.22935005      22.16855884      -0.10335658       0.02482902       0.28015527
C       25.18592157       1.19826710      22.68802622      -0.07945425      -0.21694326      -0.01416766
C       26.15525002      -0.59645325      21.24338011      -0.18623860      -0.06349259       0.20733264
C       25.01037282      -1.20559054      23.35141445       0.51164555      -0.17335534      -0.29996943
C       24.03800124      -1.37948907      25.49719738       0.26951244      -0.73001574       0.81480918
C       22.91578996      -0.85306029      26.37663225       0.20883845       0.10682976      -0.09198461
C       20.51291874      -1.96045569      28.56398180      -1.15912539      -0.43485124       0.50099336
C       20.27348313      -3.31814696      27.89294086      -0.00577779      -0.22434226       0.12099596
C       18.80855917      -4.86122375      29.12541308       0.13416780      -0.34482355       0.31363955
C       17.34228262      -5.29382505      29.27839281       0.10596763       0.31304740       0.09195905
C       16.91214055      -5.37345677      30.74623911       0.01893497       0.03304771      -0.12674470
C       15.46863009      -5.86001795      30.85650867       0.27800355      -0.07539089      -0.01672541
C       17.04520578      -3.97791629      31.35707233       0.20269085      -0.19767669      -0.04781211
C       16.93235180      -6.36935508      27.20821958      -0.45198317       0.47249212      -0.63246008
C       16.82636864      -7.58449043      26.25674967       0.17879265       0.20458407      -0.23846254
C       18.19956080      -8.21964904      26.01179677      -0.10529129      -0.03651772      -0.12572798
C       18.16692464      -9.20333921      24.83726904       0.41749460      -0.09527076       0.29097835
C       18.52305210      -7.89979977      22.84606905       1.05752020      -0.43087158      -0.00985821
C       17.96990854      -6.91182370      21.96012208      -0.05431490       1.00074683      -0.72310686
C       17.72400540      -5.94078388      21.29029081      -0.01855874      -0.90306583       0.56327197
C       17.42037789      -4.77723859      20.46304617       0.06606092       0.08998145      -0.36717784
C       15.99294622      -2.77398090      20.45713064       0.00792336      -0.07142760      -0.03104637
C       16.79799842      -3.60849401      22.52961649       0.06830088      -0.00661335       0.12220707
C       18.76378629      -4.07080805      20.18138647      -0.12222320       0.03519103       0.12177485
C       16.82207136      -5.29913436      19.14537733       0.08033870       0.04781260       0.05318474
C       16.27933429      -8.12964293      23.82365408      -0.39716380       0.28128545       0.13302125
C       16.16719136      -7.10983630      24.95547863       0.12730787      -0.02381722       0.02369294
C       17.67627237      -7.75857190      29.11892273       0.28978801      -0.35523422       0.06910623
C       20.31889258      -3.26957811      26.36131764       0.16027191      -0.49498753       0.09112934
C       19.77476125      -4.56195835      25.72842851      -0.39581645       0.36742317      -0.30422927
C       20.08339199      -4.56598919      24.22836380      -0.35145847      -0.20213274       0.29869623
C       21.94098110      -5.99386238      24.58588943      -0.10430503      -0.19632514       0.29060332
C       21.64980238      -5.97247792      26.08538086       0.17038646      -0.13182097      -0.13129490
C       22.01440982      -0.08271714      28.98212589      -0.22559306       0.13689077      -0.02831813
C       22.28484386       0.99374927      27.93413869       0.17434662      -0.17116281       0.14414795
C       23.35764177       0.50169663      26.96457486      -0.38799427       0.03139691      -0.05643438
C       22.85952011      -2.77826085      21.23739736      -0.22035974      -0.33774658      -0.37102617
C       22.78017194      -3.72466758      20.18527237      -0.09016868      -0.11048073       0.73007546
C       22.30414071      -5.01254350      20.40703372       0.01374299      -0.09983577      -0.12245353
C       21.90019731      -5.34827552      21.68016929      -0.12612269      -0.14254763       0.11840017
C       21.94849863      -4.41320295      22.72448116       0.07791220       0.19105116       0.15563098
C       22.41315844      -3.13217375      22.50866892      -0.05499594      -0.13159089      -0.09106742
F       15.98161375      -8.54890356      26.83384667      -0.07213991      -0.15660309       0.03343239
H       27.88191359      -1.25566682      16.87634037       0.04895980       0.01487616       0.03483228
H       27.71546568      -0.86376501      18.59338895       0.05584533       0.05854330       0.05951458
H       28.32782123      -2.44908020      18.11501195       0.05571312      -0.02758566       0.04566230
H       25.95654246      -2.65487531      18.79356509       0.03682071       0.14176325      -0.26740119
H       27.72805816      -4.25128320      16.74021305      -0.09649367      -0.04586036       0.03612886
H       26.52719784      -4.74089079      17.97175538       0.01942207       0.00847876      -0.12504233
H       26.21220062      -5.04274226      16.23935486       0.12590651      -0.02215717       0.09546666
H       25.15665112       1.50526675      15.57753699      -0.06507327       0.11255805      -0.01876201
H       23.02706555       1.97202569      16.80734191      -0.03851016       0.04981763      -0.02773877
H       22.31863672       0.35213731      18.57158243      -0.01171143      -0.01009608       0.02083096
H       23.77391421      -3.24017754      17.03991434      -0.14884477      -0.24010105       0.20110473
H       23.15965399      -4.73943002      17.75244261       0.09356479       0.16922244      -0.03511540
H       21.51588304      -2.24338450      17.08622554      -0.02659957       0.02586167      -0.01167427
H       21.43180722      -3.80786538      16.26970031      -0.06608820      -0.01032987      -0.10243921
H       20.87928340      -3.65159363      17.94332133      -0.06086863      -0.00228604      -0.02836277
H       23.64261402       0.52262833      20.68937766      -0.05158371       0.04466451       0.12765895
H       22.84933258      -0.13638450      22.12883523      -0.00780276       0.14504512      -0.09322685
H       25.25263457       1.89392329      21.85600478      -0.00611406       0.05956764      -0.04956851
H       24.34849049       1.48685527      23.31735114      -0.01525613       0.07949958       0.03426652
H       26.10054534       1.27233625      23.27177454       0.06430708       0.04395084       0.05369586
H       27.10665899      -0.46674447      21.75251790       0.09482845       0.01836332       0.00507787
H       26.07453440      -1.63138904      20.92285706       0.05019030      -0.04079211      -0.06744896
H       26.14212294       0.03969984      20.36221219       0.03243173       0.01098966      -0.06774291
H       25.97413770      -1.17702120      23.86910829      -0.16544519       0.02145649      -0.12037483
H       24.83190640      -2.23017027      23.01382699       0.04691336       0.18508473       0.10008364
H       22.01787431      -0.71169344      25.76719862       0.14289526      -0.02254760       0.11735852
H       23.47900969      -2.09516913      27.88942425      -0.28282157       0.05869445      -0.09815988
H       21.01754765      -4.02463436      28.27789105      -0.18323960       0.15927723      -0.15984796
H       18.17800023      -3.33560531      27.94179556       0.05482874      -0.29311003       0.19101634
H       16.70224415      -4.56045576      28.77857076       0.16241899      -0.19512463       0.19461214
H       17.58940766      -6.04042491      31.28647953      -0.08622477       0.06653795      -0.10060196
H       15.33641771      -6.83509245      30.39631740      -0.06322321      -0.06266509      -0.00813472
H       15.17631552      -5.92610074      31.90044928      -0.06924678      -0.00817579       0.05711081
H       14.80499993      -5.15882684      30.35571936      -0.08749590       0.04350939      -0.03217367
H       16.81600997      -4.01333153      32.41842448      -0.01954048       0.06845346       0.05263382
H       18.05708328      -3.59613053      31.23461733      -0.03046402       0.06310635       0.06743792
H       16.36010385      -3.28266952      30.87738771      -0.05241650       0.05250160      -0.02225071
H       18.91144882      -7.41673803      25.80990725      -0.05487051      -0.14994876       0.00124473
H       18.53410076      -8.74794699      26.90084110      -0.00087722       0.11195253       0.01678101
H       17.51307051     -10.04769632      25.06666388       0.09045092       0.04920207      -0.07804405
H       19.17443901      -9.56410404      24.62543324      -0.23825835       0.02652716       0.04345462
H       16.77757189      -2.00746706      20.37118456      -0.05205868      -0.02081528      -0.04195475
H       15.64143495      -3.04058147      19.46514093      -0.01312694       0.09876789      -0.02512940
H       15.15973579      -2.34119989      21.00936252       0.01640366       0.04242094      -0.07586841
H       15.90552539      -3.26883105      23.05414224       0.07820945       0.02186961       0.01859088
H       17.18623150      -4.48286946      23.04730243      -0.06743436       0.16631123       0.04215280
H       17.55352082      -2.80952675      22.58131012      -0.03341692      -0.05698332       0.02111853
H       19.43251274      -4.75954097      19.67169073       0.02624338       0.03556829      -0.00356394
H       18.60706853      -3.19731538      19.55377280       0.02110712       0.03010452      -0.04611026
H       19.24657273      -3.76599936      21.10816429       0.02424946      -0.00267390      -0.06065121
H       17.39455956      -6.15631405      18.79993981       0.01563454       0.04585387      -0.03524327
H       15.79241002      -5.60544089      19.30615670      -0.02561555      -0.01987676       0.00330539
H       16.85785171      -4.53133027      18.37795202      -0.03759685       0.03631214      -0.05252041
H       15.91091271      -7.69244822      22.89532862       0.01602951      -0.16792573       0.18653687
H       15.69609579      -9.02303609      24.06134905       0.05365933       0.07016749      -0.15270007
H       15.12085167      -6.88261494      25.15987494       0.09468425       0.08584725       0.01602193
H       16.66010039      -6.18299126      24.65956436      -0.12334994      -0.13598563       0.01194672
H       17.24265088      -8.62680520      28.63691235       0.02097335       0.10747807       0.05008156
H       18.76763712      -7.79155893      29.06772401      -0.13328955      -0.08190473       0.08742007
H       17.38675508      -7.77364850      30.16469149       0.01001651      -0.03692967      -0.05857748
H       19.70369149      -2.44388742      26.00341074       0.01093066       0.07691206      -0.06670757
H       21.34544779      -3.12477691      26.03267498      -0.28951545       0.11945049       0.01955072
H       18.69152333      -4.62179130      25.87797418       0.38379938       0.05690531      -0.15319691
H       19.76189672      -3.62250217      23.78545566      -0.00756897      -0.07770858       0.04435111
H       19.53063970      -5.38900551      23.73962478       0.07255295       0.23303247       0.08375090
H       21.41097508      -6.84399809      24.12309221       0.14676853       0.15624427       0.10307556
H       23.01325241      -6.10688493      24.41891298      -0.07912114      -0.02564951       0.03864507
H       22.25946487      -5.19659914      26.56286539      -0.02500950      -0.09704926      -0.00256397
H       21.87132554      -6.93818000      26.54233227       0.05048332       0.14090365      -0.05657564
H       21.17410456       0.18169977      29.62347577       0.20938003      -0.06865326      -0.08840949
H       22.90410974      -0.24471340      29.59981176      -0.04474319       0.03885198      -0.01614081
H       22.61310115       1.90623926      28.42931276      -0.04830087       0.04092934      -0.02585128
H       21.36451095       1.20615283      27.38896372       0.01071820       0.03531408       0.05899633
H       24.30543934       0.36775611      27.49160260      -0.01070155      -0.01467380      -0.07365454
H       23.50739619       1.21817390      26.15805184       0.06905096      -0.03178037       0.00691191
H       22.24365692      -5.73835519      19.61059592      -0.02232141      -0.02859017      -0.04538989
H       21.51285227      -6.33770891      21.87669569      -0.02960465      -0.00312648      -0.01065930
H       22.41154827      -2.42843939      23.32520052       0.01531743      -0.05276243       0.04382402
