151
Properties=species:S:1:pos:R:3:MACE_forces:R:3 energy:=T -221.336770201598=T gnorm:=T 0.006701103052=T xtb:=T 6.7.1=T (edcfbbe)=T MACE_energy=-90873.44097017894 pbc="F F F"
C       27.62829629      -1.81782408      18.11393404      -0.27543758      -0.25156259      -0.10940485
N       25.78250962      -0.11995368      16.81266784       0.29328389      -0.09974286      -0.08585003
O       25.96790263      -3.06815913      16.80315054       0.08910173       0.16781966       0.01012642
C       26.16341948      -2.21671893      17.93254557       0.12850597      -0.08199231       0.14914400
N       23.08238426      -2.99893436      18.98772047       0.27947074      -0.03387781      -0.04123675
O       23.92969620      -0.96024498      24.29398195      -0.23650322       0.48290026      -0.57385558
C       26.45493535      -4.38194171      16.96587315      -0.05606125       0.13535866       0.05143491
N       22.61428369      -1.94032466      27.42579488       0.42894347      -0.21679115       0.02176116
O       19.75304040      -8.12478840      22.93362075      -0.64553642       0.27211546       0.01238785
C       25.30235436      -0.99440806      17.68459573      -0.30262241      -0.22220858       0.22120601
N       21.71392465      -1.43934639      28.36901967       0.85433574       0.66490547      -0.02368374
O       16.74543936      -5.13331447      27.02907043       0.03301874      -0.54946251       0.15136290
C       25.08705101       0.96759622      16.53194301      -0.08921657       0.14480382      -0.05946998
N       19.01171786      -3.88094937      28.42784709       0.06349329       0.65025660      -0.45231823
O       19.80448833      -5.67664149      29.55223648      -0.25527163       0.11238420       0.04758270
C       23.86361717       1.25649149      17.11590007       0.03705728      -0.06646096       0.01413567
N       17.08968503      -6.50615840      28.76766205      -0.18922580       0.05359330       0.45515529
O       20.34298148      -5.74310992      26.33645605       0.03645680       0.19212730      -0.05796256
C       23.35692807       0.35300023      18.03135284       0.11015993      -0.06757850      -0.11824893
N       17.69431640      -8.35072305      23.86803877      -0.21469369      -0.23868513       0.14072411
O       19.72929657      -1.57210703      29.40508565       0.34047075      -0.03972844      -0.39855124
C       24.07211580      -0.80667307      18.33039903       0.07524545       0.28891060      -0.25971285
N       16.90602714      -4.01544247      20.78814201      -0.10803462       0.06581274       0.02883478
O       24.90406313      -2.22417854      25.86937906      -0.50356616       0.36280185      -0.09829444
C       23.51747827      -1.73428814      19.32267985       0.03886586       0.25908960       0.40138682
N       21.35834108      -4.62367466      23.98302164       0.07035102      -0.12784478      -0.20160954
C       22.91582300      -3.50221390      17.64593733      -0.23017361       0.05350486      -0.42300743
C       21.56939264      -3.07624836      17.06259443       0.16867049      -0.13111422       0.11375155
C       23.30574766      -1.49462235      20.66170420       0.04467619       0.16068747      -0.35107788
C       23.62147428      -0.25094562      21.42936717       0.14325946      -0.11259325      -0.03110906
C       24.95879199      -0.26104446      22.20291016      -0.06538796       0.03523419       0.28213498
C       25.18874220       1.13079048      22.80067655      -0.03491188      -0.25584766      -0.03217274
C       26.11217488      -0.61014598      21.26345839      -0.18966766      -0.08013028       0.21801103
C       24.94554370      -1.29502898      23.33552407       0.51604269      -0.19659299      -0.25951721
C       24.02640301      -1.47207542      25.50372119       0.34931945      -0.77204463       0.85007891
C       22.93327116      -0.93920417      26.41284651       0.18871478       0.16074972      -0.04195596
C       20.54202803      -2.04218596      28.61525283      -0.98653674      -0.49874115       0.50824728
C       20.26869019      -3.38040562      27.92076190       0.00440553      -0.14580965       0.09210543
C       18.87340422      -4.96673828      29.18972636       0.11499383      -0.32832505       0.24917539
C       17.41429066      -5.29866372      29.54334883       0.24962651       0.27400115       0.03402348
C       17.21753879      -5.39734226      31.05901105      -0.02248873       0.10082842      -0.12811803
C       15.73597957      -5.54343019      31.40217659       0.29008540      -0.09908827      -0.08867088
C       17.77786558      -4.13033334      31.70969292       0.14031910      -0.22045190      -0.10168143
C       16.86246832      -6.28302685      27.46749669      -0.54502449       0.58497831      -0.71485212
C       16.77596938      -7.44469695      26.45204304       0.28493138       0.21974778      -0.25076976
C       18.16333114      -8.05934911      26.24263226      -0.18690980      -0.06628290      -0.17540887
C       18.18537312      -9.01979880      25.04969724       0.42913105      -0.08464962       0.29831523
C       18.54687844      -7.86375095      22.94726431       0.92681937      -0.50544659       0.09105869
C       17.95401692      -7.01112666      21.94857465       0.13268289       0.71912517      -0.85698573
C       17.61619597      -6.22469291      21.10126154       0.02238251      -0.68222253       0.63962780
C       17.02672766      -5.31577329      20.11844002      -0.04186414      -0.00974709      -0.23516641
C       16.02345812      -3.05312840      20.16171360       0.01861102      -0.12438481      -0.01720783
C       18.18317426      -3.41002279      21.11094694       0.07830789       0.03122907       0.06815477
C       17.90326149      -5.30249645      18.84964203      -0.02523010       0.07697429       0.16618560
C       15.64182989      -5.89182676      19.78106791       0.08196972       0.09854749       0.00961744
C       16.31909786      -7.92871345      24.00315843      -0.28933288       0.27112289       0.15869762
C       16.20356548      -6.90818340      25.13497853       0.03427035      -0.12792504       0.06649440
C       17.38537961      -7.78620058      29.37368245       0.22366079      -0.28359092       0.10774393
C       20.21287888      -3.27865654      26.39176023       0.08879273      -0.61077623       0.02799478
C       19.72390799      -4.59581433      25.76614609      -0.31152450       0.24938831      -0.27742414
C       19.93572172      -4.58268988      24.24795170      -0.26960534      -0.12845941       0.34119210
C       21.92529019      -5.86321203      24.48982437      -0.06925407      -0.23174901       0.32640285
C       21.71528610      -5.87112459      26.00273980       0.19575032      -0.14770877      -0.19857859
C       22.07486689      -0.19782643      29.04028859      -0.23879628       0.17051015      -0.00783114
C       22.35755562       0.88780631      28.00408303       0.24058158      -0.21736262       0.15421450
C       23.42167646       0.38585695      27.03139794      -0.38152643       0.01994143      -0.13740546
C       22.69532040      -2.67195279      21.18363052      -0.21779805      -0.28821934      -0.28564719
C       22.56262503      -3.58457806      20.10858143      -0.05566125      -0.00417909       0.61260256
C       21.99736633      -4.84217996      20.29814836      -0.03879849      -0.15207624      -0.17898248
C       21.59398877      -5.19184470      21.56874800      -0.12427384      -0.17729850       0.11552252
C       21.72518560      -4.29683722      22.64219046       0.07693474       0.26677675       0.20864045
C       22.24584997      -3.03538938      22.45034087      -0.04417686      -0.14740908      -0.13469899
F       15.89659072      -8.43748333      26.92118953      -0.07829532      -0.09620032       0.03538751
H       27.99719851      -1.39291723      17.18585551       0.01680230       0.03519346       0.01507137
H       27.70787779      -1.07548737      18.90144821       0.06677389       0.03127576       0.05391530
H       28.22964043      -2.68039939      18.38648227       0.04651556      -0.00590053       0.04767058
H       25.80293791      -2.74041359      18.83314537       0.05116691       0.15313136      -0.22784626
H       27.53758442      -4.39747840      17.11932200      -0.08017159      -0.06350860      -0.02553247
H       25.96267695      -4.87699061      17.81273563       0.06706094      -0.00685982      -0.07349653
H       26.21402483      -4.90381753      16.04142894       0.05929301      -0.06926897       0.12818338
H       25.54252901       1.62881768      15.80860560      -0.08515431       0.13408298      -0.03441656
H       23.32606747       2.15234475      16.85538193      -0.03126631       0.08522087      -0.00413124
H       22.40477268       0.52412527      18.51127449      -0.02610004       0.00175445       0.03587874
H       23.72923618      -3.12943483      17.01926330      -0.15823509      -0.19973785       0.21847323
H       22.97880700      -4.59187082      17.68474229       0.12001208       0.15676600      -0.04375450
H       21.51407155      -1.99163210      17.00156020      -0.01734698       0.01371661      -0.01626155
H       21.45074801      -3.48924789      16.06562749      -0.07317440       0.00028253      -0.10348041
H       20.75782317      -3.43292086      17.69266258      -0.07307288       0.01258474      -0.02116722
H       23.65608442       0.58992093      20.73459317      -0.05394426       0.04015313       0.13180159
H       22.81762378      -0.07495358      22.14606263      -0.00290088       0.14990913      -0.07909125
H       26.10403639       1.14029985      23.39019771       0.03065198       0.05983875       0.03989523
H       25.28255609       1.86893503      22.00949484       0.00754755       0.08739210      -0.05964070
H       24.35689320       1.40987665      23.44144769      -0.01256950       0.07840743       0.03877840
H       27.06547998      -0.52277318      21.77799156       0.09896965       0.02516779       0.01665655
H       26.01025822      -1.62857109      20.89786332       0.03190418      -0.02830777      -0.06798030
H       26.11105625       0.06514288      20.41172312       0.03207875       0.02093688      -0.06511725
H       25.91133528      -1.31407899      23.85319713      -0.21342496       0.01014358      -0.16831907
H       24.74176831      -2.29927149      22.95161493       0.05160263       0.19064103       0.10589897
H       22.03133937      -0.75142637      25.82115833       0.15637713      -0.04743699       0.10202457
H       23.47506278      -2.25816519      27.87130760      -0.22191882       0.09113806      -0.03732984
H       21.03923756      -4.09654265      28.22510939      -0.20132547       0.17820830      -0.14462552
H       18.19194043      -3.35160263      28.17220974       0.09516111      -0.29448145       0.16055504
H       16.76451352      -4.50652168      29.16022815       0.12666629      -0.17221695       0.17490463
H       17.78968865      -6.24466224      31.44209298      -0.07046868       0.07526717      -0.07456706
H       15.21530568      -4.61631061      31.17435177      -0.06773789       0.04266331      -0.02094921
H       15.26967909      -6.34002517      30.83151626      -0.11403230      -0.11085501      -0.01771326
H       15.61673588      -5.75181378      32.46147277      -0.08177394      -0.01186401       0.06480924
H       17.29269145      -3.24083246      31.31532440      -0.06296879       0.06685475      -0.01566147
H       17.61730228      -4.16828504      32.78313952      -0.01693006       0.04939413       0.08679565
H       18.84556127      -4.03953726      31.52471915      -0.00885558       0.04968137       0.06892045
H       18.86924250      -7.24516619      26.07342601      -0.04109307      -0.12702605       0.00379152
H       18.48673782      -8.59298638      27.13200859      -0.00680653       0.08228512       0.04347416
H       17.54620820      -9.88387243      25.24900352       0.11094059       0.04125074      -0.05279693
H       19.20713857      -9.35343235      24.86168469      -0.25260946       0.01254778       0.02842401
H       15.01613190      -3.45348745      20.09560708      -0.03053309       0.08192920      -0.06125435
H       15.99391886      -2.17183420      20.80075506      -0.03508084       0.01560246      -0.08250097
H       16.35598936      -2.73826692      19.16037782      -0.03366981       0.01090913       0.05094277
H       18.02855477      -2.68890820      21.91356008       0.09012276       0.01280520      -0.03747273
H       18.87881627      -4.17020255      21.45977003       0.01905606       0.10773016       0.00632933
H       18.63937281      -2.88326750      20.26098246       0.02778774      -0.06027552       0.02570958
H       18.93351882      -5.05345329      19.09478174      -0.02312897       0.00683438      -0.05072793
H       17.88698387      -6.28424543      18.38428920       0.03227554      -0.01677684      -0.04534100
H       17.51759293      -4.57286477      18.14151203      -0.00642769       0.02689530      -0.05055089
H       15.21221654      -5.38075252      18.92441129      -0.05031671       0.02112410      -0.02987297
H       15.74321301      -6.94680287      19.54025469      -0.02393118       0.02388775      -0.04310374
H       14.97993794      -5.79167954      20.63740929      -0.02385098       0.00551522      -0.00224788
H       15.97856619      -7.48580412      23.06808727      -0.01265661      -0.15189360       0.16354621
H       15.71484615      -8.81123342      24.23216403       0.02702268       0.10614564      -0.12863551
H       15.16020356      -6.62985306      25.28918238       0.11834588       0.05071429       0.03638771
H       16.76100809      -6.00747682      24.87409446      -0.13156440      -0.12963354       0.00196346
H       16.86680201      -7.85743328      30.32739337       0.03956615      -0.06411638      -0.08248298
H       17.04138095      -8.59922925      28.74735213      -0.00704577       0.08695895       0.04133604
H       18.46120717      -7.86577403      29.54534240      -0.12032408      -0.07119911       0.05754780
H       19.51639251      -2.49226902      26.10143803      -0.00256123       0.07440668      -0.05394013
H       21.20339235      -3.05126158      26.00538235      -0.23582423       0.08052067       0.04556479
H       18.66098548      -4.72877041      25.98752318       0.26517966       0.12239913      -0.11217988
H       19.51874414      -3.67001378      23.82128784      -0.01070848      -0.07679176       0.04531494
H       19.41236323      -5.44848249      23.80465608       0.05240771       0.22462616       0.04287087
H       21.45436054      -6.75739063      24.04546699       0.09938503       0.19372332       0.08836563
H       22.99413087      -5.87717458      24.26997965      -0.07589697      -0.02334276       0.02727212
H       22.29448533      -5.05626678      26.45115232      -0.02381857      -0.09130892      -0.00249663
H       22.02604970      -6.82193318      26.43709607       0.06133649       0.14133704      -0.04334263
H       21.24023482       0.06919889      29.68750770       0.21507107      -0.05026436      -0.07761732
H       22.96473768      -0.37890195      29.65186583      -0.05308523       0.02602030      -0.01912637
H       22.69845218       1.78963675      28.50844307      -0.04928569       0.05914827      -0.01298938
H       21.44067204       1.11641531      27.46070144      -0.03016414       0.05344503       0.04295729
H       24.35804618       0.20791274      27.56375231       0.01941675      -0.02445794      -0.07026773
H       23.60348264       1.11342556      26.24190885       0.05599435      -0.00691199       0.00711762
H       21.87903526      -5.53867763      19.48120006       0.01723089      -0.01344962      -0.02428787
H       21.16333431      -6.16854604      21.74423001      -0.00402415      -0.00038335       0.01442901
H       22.30123008      -2.35899619      23.28633902       0.04776463      -0.01416221       0.04858435
