151
Properties=species:S:1:pos:R:3:MACE_forces:R:3 energy:=T -221.336662627659=T gnorm:=T 0.007116717600=T xtb:=T 6.7.1=T (edcfbbe)=T MACE_energy=-90873.43283269294 pbc="F F F"
C       27.60903509      -1.64327646      17.79448212      -0.29745815      -0.24568211      -0.10473156
N       25.65655117       0.12613040      16.82011052       0.27010071      -0.10583824      -0.10943308
O       25.77121268      -2.86392409      16.70963258       0.08320353       0.14109710       0.01438491
C       26.12871133      -2.02444257      17.80617025       0.14526333      -0.02816768       0.14949375
N       23.07270762      -2.83416349      19.05337858       0.29945135      -0.03495036      -0.06982673
O       24.22393442      -1.04118109      24.40881139      -0.13643454       0.54576546      -0.56714466
C       26.26817425      -4.18182869      16.79097745      -0.04783327       0.12477560       0.03853180
N       22.70621159      -1.97772612      27.49112377       0.41518811      -0.21594050       0.08990415
O       19.66069570      -7.88920006      22.77035649      -0.66728113       0.22775515       0.10709770
C       25.25472627      -0.79051792      17.68956246      -0.22974984      -0.24498362       0.21520366
N       21.79053788      -1.41146611      28.38396293       0.89518137       0.63225103      -0.01169686
O       16.78642885      -5.11722008      27.01603119       0.03051514      -0.44048658       0.10336321
C       24.94046118       1.22409103      16.65676689      -0.11047096       0.18300638      -0.05049882
N       19.03041620      -3.80577697      28.43451099       0.12479550       0.65417580      -0.52228747
O       19.86822724      -5.40952925      29.78839948      -0.28814951       0.08900794      -0.01967337
C       23.77721903       1.48231006      17.36525377       0.01512639      -0.05348528       0.04163672
N       17.27849688      -6.48737877      28.71891344      -0.17508813      -0.00353947       0.49299543
O       20.34405701      -5.68763863      26.36129946       0.08955062       0.12931188      -0.00807003
C       23.35194214       0.53282920      18.27673540       0.10115506       0.00039957      -0.17536726
N       17.64553330      -8.24227986      23.75833927      -0.16959076      -0.24558108       0.07737527
O       19.76832736      -1.43837194      29.35903561       0.39646978      -0.13310348      -0.43511031
C       24.08736499      -0.63962222      18.44863429       0.03877771       0.29656072      -0.19347769
N       15.77688571      -5.39048196      19.53873742      -0.04450626      -0.08501232       0.01788581
O       24.94153012      -2.49649947      25.95761118      -0.39061075       0.43517379      -0.13402377
C       23.60465829      -1.61952040      19.42983681       0.10797184       0.24650440       0.39079839
N       21.41938317      -4.57569955      24.03193318      -0.05081119      -0.15165364      -0.22115234
C       22.78684323      -3.24229360      17.70031864      -0.27707063       0.06497308      -0.42033215
C       21.39676511      -2.77814021      17.26884336       0.16434760      -0.14799188       0.08790122
C       23.50961755      -1.45642475      20.79289451       0.03324571       0.15815411      -0.31899885
C       23.96045428      -0.28393662      21.60291692       0.12370281      -0.10727192      -0.04522321
C       25.31914861      -0.44388339      22.32534475      -0.09851996       0.02296324       0.26297436
C       25.72277859       0.91644196      22.90069484      -0.10637178      -0.22335318      -0.02748702
C       26.39104540      -0.92768471      21.35052443      -0.17003625      -0.05739036       0.22940436
C       25.22624500      -1.46056269      23.47036654       0.41463525      -0.27167612      -0.27467277
C       24.18120010      -1.62963336      25.58624926       0.15531623      -0.84452201       0.89113805
C       23.08063477      -1.02925578      26.44701085       0.20644783       0.12047182      -0.06572305
C       20.58795672      -1.96328941      28.61213934      -1.02111475      -0.40390311       0.52111649
C       20.29801001      -3.31080090      27.94259332       0.00879882      -0.15616625       0.12580363
C       18.91303833      -4.82605603      29.28734708       0.10063829      -0.34695513       0.34678348
C       17.46276419      -5.27623824      29.53288466       0.14636968       0.31169575       0.07815750
C       17.14408588      -5.43138151      31.02185336      -0.03341892       0.07294103      -0.13340643
C       15.68871926      -5.85536258      31.22009860       0.27919413      -0.05800361      -0.07973775
C       17.38896994      -4.08733946      31.70985896       0.21040176      -0.17911901      -0.10426643
C       16.98239709      -6.26263750      27.43500285      -0.50520508       0.49794151      -0.71761630
C       16.87522112      -7.42240308      26.41572835       0.23589950       0.25250021      -0.22223935
C       18.25515433      -8.00533398      26.10126907      -0.15402639      -0.08210101      -0.16966246
C       18.21339362      -8.94008988      24.88717849       0.43944853      -0.06690513       0.33387723
C       18.44770004      -7.66738507      22.84377366       1.01424802      -0.53776813      -0.01477429
C       17.81192859      -6.76740289      21.91759931      -0.02860989       0.81026397      -0.85452578
C       17.46671942      -5.94672566      21.10612077       0.06410958      -0.68727440       0.74728330
C       17.00324692      -4.91054403      20.18716178       0.10900509       0.31265870      -0.05799505
C       15.12467300      -4.43681367      18.66465710       0.03864437      -0.01810395       0.06883716
C       15.91903364      -6.66826599      18.86819736      -0.02314628      -0.06081144      -0.04699503
C       16.69266613      -3.67981748      21.05784799       0.03733788      -0.01304374      -0.07921944
C       18.16452026      -4.58239508      19.22555726      -0.12151430      -0.03979140       0.08266239
C       16.27099502      -7.86073916      23.97951041      -0.34801673       0.26196569       0.18993122
C       16.18915991      -6.88576342      25.15358322       0.05382685      -0.14106234       0.02384999
C       17.72742033      -7.74367265      29.28395260       0.27677481      -0.29567011       0.05062805
C       20.27075304      -3.22411026      26.41128839       0.02229923      -0.58698008       0.07393641
C       19.75714011      -4.52984044      25.78195611      -0.37100156       0.34594469      -0.27212506
C       19.98975625      -4.51790875      24.26720669      -0.25716060      -0.18072579       0.27400420
C       21.95348015      -5.83138111      24.53441537      -0.03602630      -0.25800703       0.28373462
C       21.71845245      -5.85028099      26.04408403       0.24019746      -0.10554277      -0.16761919
C       22.18583412      -0.16204870      29.02061999      -0.28087270       0.15594332      -0.01664750
C       22.51093007       0.87719458      27.95016386       0.22813677      -0.17714364       0.16394074
C       23.57856683       0.31395621      27.01450041      -0.35177977       0.04891526      -0.13766456
C       22.85981007      -2.62482356      21.28709140      -0.19961416      -0.24208065      -0.36694543
C       22.59815736      -3.45980783      20.17178236      -0.01517466      -0.02764656       0.66493815
C       21.95220083      -4.68324720      20.32447643      -0.03436307      -0.12100638      -0.15965837
C       21.57203601      -5.06744572      21.59303958      -0.15165258      -0.17772270       0.04549035
C       21.80681165      -4.23824374      22.69931915       0.15551203       0.30770782       0.21388254
C       22.43289743      -3.01952477      22.55031528      -0.07115059      -0.18435818      -0.06702679
F       16.05882037      -8.43740095      26.94595907      -0.08377277      -0.14083746       0.02847062
H       28.23136177      -2.51926546      17.95306696       0.04737219      -0.02043597       0.04063445
H       27.84942695      -1.19017739      16.83694769       0.02927477       0.01973150       0.04880914
H       27.80693428      -0.92790023      18.58671552       0.07030059       0.02877536       0.03516886
H       25.88379447      -2.55162485      18.74312547       0.03142221       0.15208860      -0.23411593
H       26.01588578      -4.63403315      17.75849862       0.03711811      -0.00978365      -0.09981317
H       25.77894695      -4.73302890      15.98940984       0.10619948      -0.06105710       0.09956839
H       27.35206631      -4.21663047      16.64607914      -0.08673000      -0.05031860       0.02324343
H       25.32591906       1.92371047      15.92736216      -0.07855078       0.09748928       0.00043967
H       23.22316027       2.39307612      17.20647547      -0.01116974       0.05015017      -0.00949508
H       22.44813560       0.68265157      18.84951786      -0.00036343      -0.02272844       0.03786587
H       23.54626081      -2.82502407      17.03624382      -0.14951805      -0.21476997       0.20930647
H       22.85003515      -4.33212407      17.65279204       0.10844584       0.15960009      -0.02768687
H       21.34197766      -1.69237317      17.28620804      -0.01368862       0.03234900      -0.01280219
H       21.18654587      -3.12262340      16.26102541      -0.07557578       0.00427636      -0.09943516
H       20.64207946      -3.17658347      17.94332234      -0.06992711       0.01379075      -0.02283872
H       24.04280407       0.58216172      20.94394514      -0.03531076       0.02966117       0.12459681
H       23.20302458      -0.07155984      22.35930713       0.00873318       0.15968862      -0.09036375
H       24.95549641       1.28346855      23.57660547      -0.01848713       0.08801780       0.03691658
H       26.65743756       0.83461723      23.44888350       0.09794537       0.03093001       0.06790429
H       25.85713806       1.63809002      22.10095008       0.01271307       0.10100945      -0.07199880
H       27.36636115      -0.94237881      21.83000248       0.10283621       0.01982190       0.00743573
H       26.16433634      -1.93113942      21.00105900       0.01630994      -0.03970105      -0.07056594
H       26.43387648      -0.26384820      20.49116071       0.02740116       0.02911533      -0.06951461
H       26.18261639      -1.54225902      23.99691145      -0.17096355       0.02717353      -0.13336041
H       24.95608108      -2.45297254      23.09721848       0.05434914       0.17925062       0.08931550
H       22.19948721      -0.85042505      25.82149057       0.15217426      -0.02661973       0.09795158
H       23.54394881      -2.29092111      27.98370835      -0.25605329       0.06328275      -0.10581019
H       21.05912389      -4.02719022      28.27240279      -0.21664130       0.19966149      -0.18198700
H       18.20008352      -3.37103210      28.06047823       0.09778702      -0.30021716       0.19254837
H       16.78178003      -4.52832577      29.11414170       0.15795960      -0.19362296       0.18364631
H       17.82627211      -6.16259877      31.46288235      -0.09620267       0.07881265      -0.08638359
H       15.49106455      -6.02170972      32.27524823      -0.07678040      -0.01355327       0.05379234
H       15.02444719      -5.06973517      30.86458014      -0.05069626       0.01957028      -0.00281989
H       15.45241504      -6.76483719      30.67419733      -0.06466363      -0.05620479       0.00159256
H       18.42340827      -3.77249719      31.58769420      -0.02665838       0.04599643       0.06286152
H       16.74802173      -3.31643548      31.28746413      -0.05925550       0.04784520      -0.00967559
H       17.17636497      -4.17130866      32.77189339      -0.01325297       0.04870645       0.07010461
H       18.93429946      -7.17416441      25.90196435      -0.07707351      -0.18098148       0.02209097
H       18.64769827      -8.55091614      26.95697388      -0.01863831       0.12444171      -0.01000426
H       17.59664237      -9.81602282      25.10282389       0.09656560       0.05231424      -0.06717279
H       19.22478119      -9.25706498      24.62938855      -0.24171593       0.00836734       0.04183361
H       14.15460078      -4.85093052      18.39083019       0.02681210       0.09365644      -0.04309076
H       14.95757775      -3.49843829      19.18464792      -0.03105162       0.03709160      -0.06986772
H       15.68613113      -4.24492870      17.73817594      -0.03596772       0.03523167       0.04437883
H       16.44049983      -6.59367901      17.90216893      -0.01325340      -0.02314515       0.06250004
H       16.46173441      -7.36196895      19.50715024      -0.07727834      -0.02498396      -0.10978117
H       14.92208861      -7.06929564      18.68620906       0.07160025      -0.04811137      -0.04880234
H       16.60466573      -2.78765749      20.44472285      -0.02779033       0.05977195      -0.00658524
H       15.76725322      -3.84024606      21.60367296      -0.01378694      -0.00557325       0.01485581
H       17.49955667      -3.52710410      21.77053902       0.00036901       0.05796844      -0.04017695
H       18.42979834      -5.45262812      18.62986624       0.02697444       0.01715894      -0.01448755
H       17.88302648      -3.76690699      18.56418375       0.00767084       0.03549071      -0.04496107
H       19.03646862      -4.28449040      19.80453636       0.02328356       0.01424225      -0.06813425
H       15.86877335      -7.39178365      23.08112207       0.02064437      -0.16737878       0.16473488
H       15.70000158      -8.76635968      24.20379023       0.03152266       0.10629554      -0.12525614
H       15.14790301      -6.66716922      25.38958710       0.08769907       0.07903385       0.02941641
H       16.67950995      -5.94934788      24.88628635      -0.10511563      -0.13440391      -0.00232607
H       18.81821058      -7.73262544      29.37916028      -0.20271054      -0.08096541       0.05432224
H       17.29046559      -7.86987864      30.27333773       0.07284824      -0.04218247      -0.14682821
H       17.40858190      -8.57938814      28.67011287       0.00409770       0.14324146       0.09909699
H       19.60871444      -2.41498621      26.09975840       0.01355063       0.04357210      -0.04666163
H       21.27591320      -3.03537527      26.04415692      -0.22382844       0.10351344       0.04212257
H       18.68706780      -4.63821953      25.98641872       0.30208915       0.09860114      -0.10367271
H       19.59100085      -3.59732112      23.83420944       0.01986049      -0.11177371       0.06020343
H       19.46241853      -5.37665418      23.80878116       0.12146573       0.28989991       0.09780557
H       21.47213466      -6.71139780      24.06763279       0.11980744       0.23011753       0.11042483
H       23.02736192      -5.86421426      24.33253565      -0.14240400      -0.02319790       0.04122342
H       22.31392716      -5.05629679      26.51162237      -0.05311008      -0.12324926      -0.03447172
H       21.99916751      -6.81390538      26.47267029       0.04447437       0.15520040      -0.05080194
H       21.35801143       0.15391055      29.65484466       0.20552777      -0.06833672      -0.08516036
H       23.06691541      -0.35418879      29.64194613      -0.06513086       0.03049285      -0.01299565
H       22.86480858       1.79190408      28.42398784      -0.05251843       0.02355754      -0.02898930
H       21.60674085       1.10572181      27.38394541      -0.00098719       0.04400176       0.05214449
H       24.50818062       0.14864200      27.56521891      -0.01515575      -0.01206421      -0.06953871
H       23.77839564       1.00160924      26.19382515       0.06653050      -0.02190377       0.03340322
H       21.74580693      -5.32143216      19.47815785       0.00294095      -0.01846411      -0.02362844
H       21.07001375      -6.01399381      21.73815937      -0.01433516      -0.01902722       0.02233401
H       22.56359041      -2.39290389      23.41612826       0.03398009      -0.01676744       0.02110741
