151
Properties=species:S:1:pos:R:3:MACE_forces:R:3 energy:=T -221.336770201598=T gnorm:=T 0.006701103052=T xtb:=T 6.7.1=T (edcfbbe)=T MACE_energy=-90873.50891457204 pbc="F F F"
C       27.62829629      -1.81782408      18.11393404      -0.29941311      -0.20459128      -0.14090945
N       25.78250962      -0.11995368      16.81266784       0.30001600      -0.10293655      -0.04961367
O       25.96790263      -3.06815913      16.80315054       0.08357867       0.20935155       0.00595120
C       26.16341948      -2.21671893      17.93254557       0.12576910      -0.09967224       0.15623159
N       23.08238426      -2.99893436      18.98772047       0.31883319       0.11191326      -0.04072632
O       23.92969620      -0.96024498      24.29398195      -0.17431109       0.43510310      -0.51652512
C       26.45493535      -4.38194171      16.96587315      -0.03931399       0.11682811       0.07209468
N       22.61428369      -1.94032466      27.42579488       0.39008941      -0.18391871       0.08413528
O       19.75304040      -8.12478840      22.93362075      -0.70500337       0.21667414       0.03250956
C       25.30235436      -0.99440806      17.68459573      -0.30281282      -0.18246485       0.22537729
N       21.71392465      -1.43934639      28.36901967       0.89125261       0.64372574      -0.05038777
O       16.74543936      -5.13331447      27.02907043       0.00480339      -0.56264333       0.12578619
C       25.08705101       0.96759622      16.53194301      -0.07159542       0.12553950      -0.08700408
N       19.01171786      -3.88094937      28.42784709       0.09586918       0.61595289      -0.41196237
O       19.80448833      -5.67664149      29.55223648      -0.28264557       0.15385521       0.05663389
C       23.86361717       1.25649149      17.11590007       0.01622729      -0.08326797       0.01952164
N       17.08968503      -6.50615840      28.76766205      -0.18909109       0.03568658       0.41412813
O       20.34298148      -5.74310992      26.33645605       0.04898096       0.17697131      -0.08625707
C       23.35692807       0.35300023      18.03135284       0.13236873      -0.05021618      -0.10371290
N       17.69431640      -8.35072305      23.86803877      -0.19781042      -0.19369281       0.14271423
O       19.72929657      -1.57210703      29.40508565       0.36282832       0.01136090      -0.40999989
C       24.07211580      -0.80667307      18.33039903       0.08511333       0.23287756      -0.22921539
N       16.90602714      -4.01544247      20.78814201      -0.09042109       0.05771569       0.02811726
O       24.90406313      -2.22417854      25.86937906      -0.45156860       0.34997819      -0.11903728
C       23.51747827      -1.73428814      19.32267985       0.03034048       0.19974896       0.35565870
N       21.35834108      -4.62367466      23.98302164       0.16675493      -0.08559744      -0.27149700
C       22.91582300      -3.50221390      17.64593733      -0.24123195       0.06372075      -0.47729563
C       21.56939264      -3.07624836      17.06259443       0.18793225      -0.11569084       0.10463792
C       23.30574766      -1.49462235      20.66170420       0.06135167       0.13698678      -0.31858808
C       23.62147428      -0.25094562      21.42936717       0.12798957      -0.06931802      -0.03856044
C       24.95879199      -0.26104446      22.20291016      -0.04721802       0.03639786       0.29131313
C       25.18874220       1.13079048      22.80067655      -0.05893585      -0.24869883      -0.02933001
C       26.11217488      -0.61014598      21.26345839      -0.20839851      -0.07239122       0.20983537
C       24.94554370      -1.29502898      23.33552407       0.56317096      -0.16946997      -0.28266769
C       24.02640301      -1.47207542      25.50372119       0.30730045      -0.75043542       0.78968980
C       22.93327116      -0.93920417      26.41284651       0.18404943       0.12901840      -0.09257686
C       20.54202803      -2.04218596      28.61525283      -1.12762872      -0.47493646       0.51247677
C       20.26869019      -3.38040562      27.92076190       0.01715086      -0.19876826       0.10855248
C       18.87340422      -4.96673828      29.18972636       0.12896602      -0.35592593       0.22728362
C       17.41429066      -5.29866372      29.54334883       0.23098510       0.30708441       0.00929411
C       17.21753879      -5.39734226      31.05901105      -0.00541356       0.04858364      -0.14827355
C       15.73597957      -5.54343019      31.40217659       0.27893971      -0.10440828      -0.08469224
C       17.77786558      -4.13033334      31.70969292       0.11364886      -0.22467330      -0.08061469
C       16.86246832      -6.28302685      27.46749669      -0.55171429       0.63369415      -0.71563291
C       16.77596938      -7.44469695      26.45204304       0.18277850       0.18384763      -0.23843651
C       18.16333114      -8.05934911      26.24263226      -0.14666218       0.00250898      -0.14332810
C       18.18537312      -9.01979880      25.04969724       0.42026216      -0.11475715       0.28103767
C       18.54687844      -7.86375095      22.94726431       1.00504220      -0.52179199       0.02993182
C       17.95401692      -7.01112666      21.94857465       0.10856846       0.78693263      -0.93310604
C       17.61619597      -6.22469291      21.10126154       0.08048063      -0.75663967       0.74853625
C       17.02672766      -5.31577329      20.11844002      -0.14142283      -0.00947236      -0.25287290
C       16.02345812      -3.05312840      20.16171360       0.02579194      -0.09578727      -0.02554957
C       18.18317426      -3.41002279      21.11094694       0.07398688       0.00720863       0.09928377
C       17.90326149      -5.30249645      18.84964203      -0.00805866       0.08926692       0.17483733
C       15.64182989      -5.89182676      19.78106791       0.10188983       0.08762038      -0.01353196
C       16.31909786      -7.92871345      24.00315843      -0.35097121       0.26719859       0.12221394
C       16.20356548      -6.90818340      25.13497853       0.08465852      -0.06575428       0.08118973
C       17.38537961      -7.78620058      29.37368245       0.18616087      -0.34782762       0.12296807
C       20.21287888      -3.27865654      26.39176023       0.15635256      -0.49897579       0.06856821
C       19.72390799      -4.59581433      25.76614609      -0.35084765       0.24102091      -0.25352371
C       19.93572172      -4.58268988      24.24795170      -0.32695999      -0.19436075       0.33665982
C       21.92529019      -5.86321203      24.48982437      -0.11224657      -0.21458303       0.29947746
C       21.71528610      -5.87112459      26.00273980       0.14953265      -0.12653215      -0.15239161
C       22.07486689      -0.19782643      29.04028859      -0.18627584       0.16200249      -0.04886433
C       22.35755562       0.88780631      28.00408303       0.18317727      -0.20669056       0.16343657
C       23.42167646       0.38585695      27.03139794      -0.40993635       0.02735298      -0.07385457
C       22.69532040      -2.67195279      21.18363052      -0.22214906      -0.30676464      -0.34278433
C       22.56262503      -3.58457806      20.10858143      -0.10544252      -0.11040976       0.67875865
C       21.99736633      -4.84217996      20.29814836      -0.02711775      -0.10856595      -0.15058162
C       21.59398877      -5.19184470      21.56874800      -0.11429158      -0.18226895       0.12879149
C       21.72518560      -4.29683722      22.64219046       0.05917304       0.23342673       0.18986940
C       22.24584997      -3.03538938      22.45034087      -0.05451606      -0.11819577      -0.13071842
F       15.89659072      -8.43748333      26.92118953      -0.04067357      -0.10047367       0.04451325
H       27.99719851      -1.39291723      17.18585551       0.03842628       0.01664808       0.01978190
H       27.70787779      -1.07548737      18.90144821       0.04475498       0.04079811       0.05662007
H       28.22964043      -2.68039939      18.38648227       0.05055185      -0.02530495       0.04145244
H       25.80293791      -2.74041359      18.83314537       0.06860653       0.14906891      -0.24396357
H       27.53758442      -4.39747840      17.11932200      -0.08362735      -0.05628449      -0.02668340
H       25.96267695      -4.87699061      17.81273563       0.06706637      -0.00738684      -0.08440542
H       26.21402483      -4.90381753      16.04142894       0.05666531      -0.08033891       0.12958687
H       25.54252901       1.62881768      15.80860560      -0.08575844       0.13798877      -0.03092443
H       23.32606747       2.15234475      16.85538193      -0.03673158       0.09534883      -0.01305889
H       22.40477268       0.52412527      18.51127449      -0.02776731       0.00064843       0.02729207
H       23.72923618      -3.12943483      17.01926330      -0.17657947      -0.22885420       0.20901806
H       22.97880700      -4.59187082      17.68474229       0.11276458       0.14851949      -0.04423474
H       21.51407155      -1.99163210      17.00156020      -0.02265663       0.01796173      -0.01841143
H       21.45074801      -3.48924789      16.06562749      -0.06651555      -0.00797265      -0.09806743
H       20.75782317      -3.43292086      17.69266258      -0.07815689       0.00886317      -0.00461773
H       23.65608442       0.58992093      20.73459317      -0.05203613       0.05086525       0.13892121
H       22.81762378      -0.07495358      22.14606263       0.00718100       0.14897227      -0.07715663
H       26.10403639       1.14029985      23.39019771       0.02499345       0.05530892       0.04398660
H       25.28255609       1.86893503      22.00949484      -0.00498584       0.06963974      -0.05927518
H       24.35689320       1.40987665      23.44144769      -0.00603281       0.08204965       0.04341811
H       27.06547998      -0.52277318      21.77799156       0.09605504       0.01359001       0.00534438
H       26.01025822      -1.62857109      20.89786332       0.05537881      -0.02393885      -0.07290415
H       26.11105625       0.06514288      20.41172312       0.04926174       0.00677099      -0.05716417
H       25.91133528      -1.31407899      23.85319713      -0.20545845       0.02417959      -0.16025071
H       24.74176831      -2.29927149      22.95161493       0.02863849       0.20487911       0.10963063
H       22.03133937      -0.75142637      25.82115833       0.16019200      -0.04032815       0.11777305
H       23.47506278      -2.25816519      27.87130760      -0.22893209       0.10190495      -0.05383349
H       21.03923756      -4.09654265      28.22510939      -0.18624446       0.15520941      -0.12938410
H       18.19194043      -3.35160263      28.17220974       0.07778408      -0.29392536       0.18531756
H       16.76451352      -4.50652168      29.16022815       0.15283479      -0.17937463       0.15235371
H       17.78968865      -6.24466224      31.44209298      -0.06226700       0.07194152      -0.05903442
H       15.21530568      -4.61631061      31.17435177      -0.08263066       0.05806389      -0.02345820
H       15.26967909      -6.34002517      30.83151626      -0.11031237      -0.10207234      -0.01323142
H       15.61673588      -5.75181378      32.46147277      -0.07324504      -0.01239763       0.06076080
H       17.29269145      -3.24083246      31.31532440      -0.05764686       0.05418179      -0.01434557
H       17.61730228      -4.16828504      32.78313952      -0.00485936       0.06338525       0.07218284
H       18.84556127      -4.03953726      31.52471915      -0.00576094       0.04478412       0.07416295
H       18.86924250      -7.24516619      26.07342601      -0.02987068      -0.15343306      -0.00059160
H       18.48673782      -8.59298638      27.13200859      -0.02031799       0.06692913       0.04854044
H       17.54620820      -9.88387243      25.24900352       0.09593161       0.03361636      -0.05894868
H       19.20713857      -9.35343235      24.86168469      -0.24481848       0.01165837       0.02139078
H       15.01613190      -3.45348745      20.09560708      -0.02260938       0.09743367      -0.06651270
H       15.99391886      -2.17183420      20.80075506      -0.04150189       0.01410527      -0.07994496
H       16.35598936      -2.73826692      19.16037782      -0.05215339      -0.00141384       0.03687581
H       18.02855477      -2.68890820      21.91356008       0.08465792      -0.00862521      -0.04317556
H       18.87881627      -4.17020255      21.45977003       0.00509156       0.16597347      -0.00240495
H       18.63937281      -2.88326750      20.26098246       0.04326628      -0.06404748       0.01819730
H       18.93351882      -5.05345329      19.09478174      -0.00087404       0.01092451      -0.03884047
H       17.88698387      -6.28424543      18.38428920       0.01864109      -0.03815276      -0.02399583
H       17.51759293      -4.57286477      18.14151203      -0.01901510       0.03220542      -0.04341200
H       15.21221654      -5.38075252      18.92441129      -0.05881168       0.02565438      -0.04069947
H       15.74321301      -6.94680287      19.54025469      -0.00964947       0.02788366      -0.04143456
H       14.97993794      -5.79167954      20.63740929      -0.01081509       0.01481028       0.00488918
H       15.97856619      -7.48580412      23.06808727      -0.03225901      -0.17418057       0.21721669
H       15.71484615      -8.81123342      24.23216403       0.04703970       0.08059061      -0.14673951
H       15.16020356      -6.62985306      25.28918238       0.12390634       0.06083211       0.03030566
H       16.76100809      -6.00747682      24.87409446      -0.13226108      -0.12018686       0.01637120
H       16.86680201      -7.85743328      30.32739337       0.05109752      -0.05594644      -0.06440468
H       17.04138095      -8.59922925      28.74735213       0.01382547       0.10544068       0.05518915
H       18.46120717      -7.86577403      29.54534240      -0.10589539      -0.06573960       0.05726706
H       19.51639251      -2.49226902      26.10143803       0.00651297       0.08271289      -0.05590618
H       21.20339235      -3.05126158      26.00538235      -0.25607830       0.10423725       0.03628277
H       18.66098548      -4.72877041      25.98752318       0.32114385       0.08002645      -0.16830741
H       19.51874414      -3.67001378      23.82128784       0.00101839      -0.06702570       0.05067970
H       19.41236323      -5.44848249      23.80465608       0.05803579       0.23043156       0.05118448
H       21.45436054      -6.75739063      24.04546699       0.12970758       0.19945690       0.10698975
H       22.99413087      -5.87717458      24.26997965      -0.08199854      -0.02017729       0.03079938
H       22.29448533      -5.05626678      26.45115232      -0.00878447      -0.08219286       0.01685332
H       22.02604970      -6.82193318      26.43709607       0.06279141       0.14104034      -0.04969372
H       21.24023482       0.06919889      29.68750770       0.21263693      -0.05976511      -0.08077282
H       22.96473768      -0.37890195      29.65186583      -0.04135022       0.03556993      -0.01193651
H       22.69845218       1.78963675      28.50844307      -0.04096519       0.05860237      -0.01321836
H       21.44067204       1.11641531      27.46070144      -0.00376407       0.05080461       0.05735991
H       24.35804618       0.20791274      27.56375231       0.02259706      -0.02269706      -0.07837519
H       23.60348264       1.11342556      26.24190885       0.05508537      -0.02210716      -0.00302371
H       21.87903526      -5.53867763      19.48120006      -0.00152349      -0.02433914      -0.01915220
H       21.16333431      -6.16854604      21.74423001      -0.01722890       0.01337580       0.02009543
H       22.30123008      -2.35899619      23.28633902       0.01654227      -0.05126514       0.05441274
