151
Properties=species:S:1:pos:R:3:MACE_forces:R:3 energy:=T -221.337266897409=T gnorm:=T 0.004265822527=T xtb:=T 6.7.1=T (edcfbbe)=T MACE_energy=-90873.59020091961 pbc="F F F"
C       -7.29550071      -4.22404736       2.84017308       0.17575399      -0.13442691      -0.32898023
N       -5.68267049      -6.42445566       3.53973291      -0.33916704       0.07256890      -0.04287572
O       -6.41201399      -5.33272052       0.83698777       0.00800636      -0.07850330       0.23293195
C       -6.06714731      -4.59569437       2.00959092      -0.07893431       0.22616495       0.02870256
N       -3.08925580      -4.24589803       0.61907157      -0.31477439      -0.03403369       0.23043110
O       -1.79750913       0.26535399       3.88922893       0.10637767      -0.65714820       0.24404179
C       -6.95004800      -4.54733691      -0.20339377       0.05812645       0.00176254       0.13548539
N        0.15795522       3.15049374       3.24954904      -0.33235979       0.27076680       0.02606619
O       -0.62910620       0.40549190      -4.38473134       0.76437350      -0.02522678      -0.21089225
C       -5.12252196      -5.46816127       2.81465410       0.29681485       0.20377399      -0.22178350
N        1.43908783       3.61313150       3.57395390      -0.63512920      -0.11143149       0.94057599
O        4.01894007       2.94878278      -2.36084931      -0.21676339       0.27244610      -0.31233428
C       -4.91810284      -7.21169848       4.27509752       0.12538939      -0.17874486       0.13654181
N        3.02522517       4.08903962       0.31406878       0.00817255      -0.66560037       0.38160687
O        2.06074121       6.03278645      -0.30863703       0.25499125      -0.11352432      -0.04099889
C       -3.53984760      -7.08089146       4.34554686      -0.00537032       0.05976272      -0.05803934
N        3.53451122       5.10966358      -2.72483371       0.33099544       0.30293751       0.02312852
O        0.57399247       2.96730117      -1.22582856      -0.01882630      -0.04780330       0.10723285
C       -2.94499650      -6.08668970       3.58976531      -0.15433166      -0.04152336      -0.01763227
N        1.13745042       1.31445478      -5.48853930       0.06365717       0.09825932      -0.21774572
O        3.49426855       4.23958118       2.92064306      -0.45122666      -0.28738158       0.03585812
C       -3.73530260      -5.26109876       2.79263866      -0.10508681      -0.24317200       0.17995843
N        3.76399334      -2.84792731      -3.45987598       0.05693767      -0.11534140       0.01962887
O       -2.49911385       2.35992155       3.49488156       0.42382366      -0.31991128       0.09313748
C       -3.10357705      -4.20265679       1.99697874       0.11444842       0.27532399       0.30800073
N       -0.54871745       0.56509481      -0.33146900      -0.24042168      -0.27545347      -0.07909098
C       -3.42201329      -5.39600557      -0.18477944       0.09616586      -0.50397440      -0.15622091
C       -2.21990088      -6.32660502      -0.33705436      -0.17019245       0.17118275      -0.04771244
C       -2.47422087      -3.06500079       2.44854903      -0.08875202      -0.33432897       0.06332918
C       -2.22215930      -2.65311466       3.86422986      -0.17510936       0.04422083      -0.00543968
C       -3.20806659      -1.62660076       4.46964773       0.16728374       0.22217681       0.01908534
C       -2.85517334      -1.42911134       5.94626655       0.01989175       0.01547559      -0.23354524
C       -4.64567660      -2.12872800       4.34784058       0.23849194       0.16800227      -0.06912008
C       -3.11872635      -0.27687236       3.74590471      -0.59899568      -0.09532605      -0.00263035
C       -1.62115117       1.56203180       3.73980684      -0.16341329       1.02715686      -0.37647141
C       -0.16930987       1.93634203       3.99054340      -0.19813597      -0.10204815       0.17334549
C        2.36965812       3.84522263       2.63485318       0.98698301       0.38885387      -0.80903983
C        1.95518653       3.63396430       1.17414733      -0.04110300       0.22201961      -0.08809018
C        2.97273666       5.21902158      -0.39438544      -0.09792404       0.40990768      -0.17180350
C        4.11874150       5.38534052      -1.40541601       0.06466022      -0.01282852       0.35376481
C        4.81856771       6.74057300      -1.26011873      -0.04105007      -0.12684092      -0.02148220
C        5.89351637       6.92080384      -2.33026343      -0.28388672       0.01609359       0.06979722
C        5.45333347       6.79586037       0.13045085      -0.27098881       0.06037627      -0.07598663
C        3.50911406       3.81845192      -3.07533182       0.48430636      -0.87092889       0.04755823
C        2.84688427       3.35979965      -4.39475524      -0.07337248      -0.26992882       0.12026835
C        1.32025494       3.42518963      -4.28070704       0.06426687      -0.14606746      -0.09164510
C        0.61859676       2.65947529      -5.40795589      -0.34841202       0.31757005       0.21242905
C        0.51335384       0.30890081      -4.84272583      -1.27785394       0.34417165       0.15703443
C        1.25380942      -0.91687426      -4.70841121       0.18802572      -1.09560401       0.36982200
C        1.72364905      -1.99240147      -4.43050349      -0.16192310       1.07723242      -0.32913307
C        2.45538463      -3.19711452      -4.03890432       0.02476104      -0.57809889       0.10930980
C        3.68206053      -1.98934374      -2.29325558      -0.07387023       0.14161565       0.09266846
C        4.71297042      -2.30643462      -4.41567614      -0.01503363      -0.00773383      -0.04433078
C        1.61065179      -3.95435089      -2.99965707       0.01819868       0.11336916       0.02762995
C        2.64299055      -4.10185020      -5.26644454      -0.00716777       0.11947743       0.04258874
C        2.53918338       1.28794019      -5.83211070       0.52326085      -0.04059870       0.05561400
C        3.34816603       1.94718998      -4.71696116      -0.12013046       0.03292722       0.04703559
C        2.74665793       6.15963311      -3.33451071      -0.43162981       0.25374659      -0.18018699
C        1.62690450       2.17244404       0.85671117      -0.27449795       0.26920680      -0.31474676
C        1.39253680       1.95826080      -0.64904495       0.42953736      -0.39710284       0.03505096
C        0.78513859       0.57030648      -0.89045755       0.30652404       0.31408897      -0.27778363
C       -1.38130373       1.53307933      -1.02676740       0.07913338       0.35046677      -0.17132443
C       -0.77578758       2.91403122      -0.79133288      -0.25038424      -0.05683703      -0.02921509
C        1.71138999       3.84986844       4.98542256       0.23467946      -0.14631739       0.00932528
C        1.44879261       2.57219156       5.77784695      -0.16262139       0.23735295      -0.02637200
C        0.02162570       2.09970617       5.51118522       0.35506131      -0.15565611      -0.13212894
C       -2.04394560      -2.36525267       1.28321462      -0.00937489      -0.28110931      -0.46080573
C       -2.43811976      -3.13623426       0.16151318       0.29822873       0.67276398       0.02688778
C       -2.16781761      -2.71335124      -1.13656807      -0.04058617      -0.10138468      -0.14415917
C       -1.53689195      -1.50047749      -1.30917009       0.10396758       0.12139183      -0.16736333
C       -1.15002008      -0.72602427      -0.20563837       0.09079964       0.09933209       0.31841784
C       -1.36992303      -1.16428054       1.08179753      -0.00259767      -0.04644789      -0.16613412
F        3.26089802       4.19553516      -5.44796046      -0.02229972       0.07920846      -0.12032728
H       -7.86395958      -5.12444294       3.05109858      -0.02483486       0.03223449       0.04566824
H       -6.97989370      -3.77366299       3.77546448      -0.01680079       0.04623613       0.08040584
H       -7.92088423      -3.51476731       2.30462328      -0.02741154       0.04804337      -0.00658786
H       -5.53171852      -3.68355841       1.70075224      -0.13629343      -0.25552367       0.07723097
H       -7.88104289      -4.05958658       0.09491044       0.01671429      -0.01034160      -0.05193561
H       -6.23255864      -3.78437994      -0.52516869      -0.04654449      -0.01755366      -0.02840394
H       -7.15087496      -5.23331522      -1.02216151      -0.01948332       0.11398118      -0.05876477
H       -5.44157046      -7.97304928       4.83666897       0.07514246      -0.07011910       0.07192945
H       -2.95334524      -7.73635721       4.96817175       0.02216799      -0.05419840       0.04134341
H       -1.87375770      -5.94782440       3.60040440       0.02312601       0.02322912      -0.01314614
H       -4.25464005      -5.92692136       0.28133039       0.16419196       0.21013966      -0.22227432
H       -3.74653470      -5.04187151      -1.16568348      -0.07422505      -0.04805642       0.16592229
H       -2.47535187      -7.15573403      -0.98946441       0.03062999      -0.11071455      -0.04850576
H       -1.37851856      -5.78625332      -0.76505667       0.04838683      -0.02864976      -0.01413401
H       -1.92414263      -6.72167891       0.63145294       0.02518512      -0.02903976       0.03237109
H       -2.25087738      -3.54112658       4.49749711       0.09284512       0.08630091       0.05902863
H       -1.22062500      -2.22305807       3.91784146       0.01002110      -0.12308533       0.12724702
H       -3.00685022      -2.35348991       6.49616345       0.00604214      -0.07468341       0.04904993
H       -1.81607019      -1.12840773       6.05085394       0.03918225       0.00865943       0.07397038
H       -3.48443386      -0.65934555       6.38707718      -0.03481592       0.04833704       0.07276661
H       -4.94903773      -2.15967582       3.30563088      -0.09212600      -0.05885942      -0.05260710
H       -4.72536862      -3.13079271       4.76138550      -0.05475597      -0.04763276       0.01152512
H       -5.32682815      -1.47428865       4.88580762      -0.07873527       0.02355586       0.03251832
H       -3.83509144       0.43876600       4.16126708       0.12200880      -0.17641852      -0.05208779
H       -3.32595179      -0.39504575       2.67874017       0.04605685       0.06263701       0.18449681
H        0.47542207       1.12926443       3.63039187      -0.08331812       0.14291909       0.05240299
H       -0.54188250       3.86407803       3.45771243       0.20527597      -0.15672446      -0.08596582
H        1.09418789       4.27858705       0.96546238       0.20051543      -0.23760145       0.02810764
H        3.81053485       3.46561960       0.20133066      -0.12093835       0.30459696      -0.15380153
H        4.86225146       4.59952853      -1.24013641      -0.19073800       0.26506707      -0.02834256
H        4.07352473       7.53890783      -1.32112077       0.08799354      -0.12918949      -0.01649638
H        6.38285295       7.88217774      -2.20344037       0.07025257       0.05035364      -0.02781150
H        6.64239188       6.13772164      -2.23697866       0.08784824      -0.05608069      -0.01530063
H        5.47917151       6.87317917      -3.33319345       0.02481290       0.00012802      -0.08212656
H        5.89824891       7.77314326       0.29757667       0.04845001       0.01551331       0.06045747
H        4.70893267       6.61844623       0.90446997       0.06586576       0.03076570       0.05776725
H        6.23095515       6.04146120       0.22605282       0.05929924      -0.04768866       0.01348266
H        1.03633286       3.00586221      -3.31385591      -0.02661589       0.05052202      -0.17576500
H        0.99034179       4.46137581      -4.30440544       0.05306495      -0.01364076       0.09650703
H        0.78814836       3.15402017      -6.36772515      -0.06203953      -0.08492390       0.06760157
H       -0.45259326       2.60637206      -5.20636910       0.22657248       0.03269584      -0.10462957
H        3.29584701      -0.98260176      -2.52010350       0.02927741      -0.14545054       0.02160004
H        3.04837317      -2.44074132      -1.53582826       0.01617018       0.07650403       0.02589981
H        4.68312125      -1.88406775      -1.87799843      -0.05020613       0.00860161       0.01781108
H        4.96875358      -3.05823270      -5.15677644       0.04056171       0.09610726      -0.05910724
H        4.34245663      -1.40431399      -4.92467031       0.03281594      -0.06307387       0.01642772
H        5.62193945      -2.04217523      -3.87886477      -0.00447177      -0.00981754      -0.03828044
H        2.22610151      -4.71279371      -2.52556884       0.04449326      -0.07111213       0.00610349
H        1.21080535      -3.28483297      -2.24155708       0.01719969      -0.04900096      -0.00527216
H        0.76893585      -4.43231090      -3.49292242      -0.04113072       0.01538498       0.00708503
H        1.68274605      -4.51120476      -5.56720671      -0.00968693       0.01869957      -0.01329093
H        3.05140694      -3.55278390      -6.10987738       0.02190331      -0.02369785       0.00310915
H        3.31108411      -4.91744935      -5.00550809       0.03235549      -0.04997862       0.01719470
H        2.86330420       0.25556486      -5.97153308      -0.04859026       0.28147656      -0.06648432
H        2.67139400       1.83576818      -6.76860088      -0.05610507      -0.15333243       0.03759170
H        4.40137700       2.00833843      -4.99286575      -0.04549967      -0.01414300       0.11734296
H        3.27056075       1.35242053      -3.80535245       0.04979699       0.06682283      -0.17973231
H        3.26525966       7.10643283      -3.22066738      -0.04456884      -0.04098267      -0.03716334
H        2.60758713       5.97630942      -4.39382818       0.05859582       0.00607046       0.14179429
H        1.78045573       6.23867595      -2.82950466       0.10555955       0.08773927      -0.10404872
H        2.45653441       1.53542483       1.16326204       0.00347764      -0.08229995       0.05473956
H        0.72667468       1.87889140       1.39077942       0.26925313      -0.02760398       0.03783809
H        2.34071761       2.04381513      -1.19041391      -0.31628653      -0.11897613       0.18487190
H        1.38766594      -0.18755562      -0.38684413      -0.02625839       0.05349870      -0.06437582
H        0.78397120       0.35344906      -1.97467918       0.03550576       0.01230432       0.23735705
H       -1.43724495       1.32963190      -2.11074324      -0.01744814       0.06214561       0.21317396
H       -2.38764920       1.49773188      -0.60630150       0.07506535       0.02884910      -0.04964688
H       -0.84456376       3.16251346       0.27383930      -0.01678120       0.02154024      -0.09206344
H       -1.29752334       3.67529716      -1.37397448       0.01734733      -0.10013740       0.13214668
H        2.75028669       4.16924687       5.06409567      -0.23546002      -0.01802109      -0.00438501
H        1.05811775       4.65599267       5.33603885       0.04707080      -0.03235846       0.01102415
H        1.59233519       2.76578257       6.83957145       0.04522175      -0.04017690       0.01142470
H        2.15544334       1.80246187       5.46539637       0.02428340       0.04679339       0.05945690
H       -0.69324012       2.83703322       5.88398902      -0.02006709      -0.05838452      -0.03467286
H       -0.17109446       1.14871243       6.00591419      -0.06440098       0.03376559       0.00176246
H       -2.45273736      -3.30266590      -1.99485958      -0.01142795      -0.02734820      -0.03317217
H       -1.33792561      -1.13437124      -2.30731760       0.01820097       0.02101333      -0.01260424
H       -1.02545118      -0.56222601       1.90463514      -0.00613874       0.04862356      -0.05528844
