151
Properties=species:S:1:pos:R:3:MACE_forces:R:3 energy:=T -221.338789675390=T gnorm:=T 0.005863487874=T xtb:=T 6.7.1=T (edcfbbe)=T MACE_energy=-90873.54520855378 pbc="F F F"
C       -7.12895865      -4.67922219       3.18837358       0.10951219      -0.04183654      -0.38503987
N       -5.22638553      -6.72443747       3.47776984      -0.30515922      -0.01356454       0.00754096
O       -6.40184440      -5.53887593       1.00157842      -0.00806746      -0.04487636       0.19330122
C       -5.99330563      -4.84401103       2.17882183      -0.06314771       0.17376123       0.04824322
N       -3.16490886      -4.10252304       0.45721561      -0.27956762       0.01507718       0.04144755
O       -1.72975394       0.25952948       3.91206399       0.19551209      -0.69235047       0.26704062
C       -7.27042576      -4.81110146       0.16179425       0.12022769      -0.02004421       0.09461669
N        0.12047184       3.20704389       3.15470728      -0.45531323       0.19773872       0.01289236
O       -0.63597503       0.55407117      -4.41336941       0.76272054      -0.08791227      -0.14614405
C       -4.86288303      -5.65693614       2.78128208       0.22204390       0.26426527      -0.25483161
N        1.36003113       3.75307192       3.50225210      -0.59159494      -0.11499462       0.88053152
O        4.07907817       2.98203996      -2.27475402      -0.13676102       0.23553773      -0.27806478
C       -4.29960588      -7.48255632       4.03540845       0.14893401      -0.14038653       0.10044535
N        3.03364080       4.18202244       0.28164883       0.02138619      -0.65676550       0.48349489
O        2.00513047       6.01574028      -0.54326516       0.20797586      -0.01622278      -0.00717042
C       -2.94293390      -7.21035982       3.94731086      -0.02291461       0.03550551      -0.01577971
N        3.69921500       5.13254204      -2.78622334       0.31428180       0.33323395       0.10690709
O        0.67355944       3.04180855      -1.31046281      -0.00945161      -0.06763734       0.14934588
C       -2.55380899      -6.10010076       3.22150129      -0.15200027      -0.06144319      -0.03602141
N        1.25598433       1.29105385      -5.43505552       0.04749097       0.12427905      -0.25921273
O        3.41603811       4.41938659       2.88929492      -0.49678987      -0.29698680      -0.02506304
C       -3.51862187      -5.30079489       2.60790973      -0.02120603      -0.30955174       0.18508679
N        3.41541793      -3.02889495      -3.08950729       0.01955237      -0.11871138      -0.03635154
O       -2.47587255       2.27445669       3.26987739       0.47783665      -0.30505182       0.18527545
C       -3.06432643      -4.14089591       1.82999910       0.12969949       0.24857253       0.42194006
N       -0.60298185       0.71076035      -0.44582889      -0.11385385      -0.22213287      -0.08733229
C       -3.58652845      -5.18532724      -0.39707022       0.11298003      -0.44686563      -0.17804100
C       -2.40200151      -6.06191964      -0.80051046      -0.16793399       0.16700181       0.00201691
C       -2.41440803      -3.01928880       2.29455424      -0.09160966      -0.33175711       0.07321595
C       -2.08430767      -2.67405770       3.71185078      -0.19274387       0.01006147      -0.04400597
C       -3.06463630      -1.70878332       4.41798644       0.16898399       0.22195324       0.05077431
C       -2.65616965      -1.59177507       5.88900320      -0.02478125       0.00778583      -0.22567344
C       -4.49469958      -2.23949366       4.32657454       0.20008806       0.20084529      -0.10572752
C       -3.03766489      -0.31675201       3.77532196      -0.54733319      -0.09653517      -0.11102803
C       -1.58494942       1.54094841       3.63818571      -0.25608041       1.04434129      -0.47464973
C       -0.16436531       1.99852648       3.92127907      -0.15564407      -0.02337973       0.20082407
C        2.31100353       3.98321400       2.58298865       0.92767718       0.45582838      -0.68600694
C        1.94272140       3.73048733       1.11768693      -0.02016190       0.13799320      -0.08498120
C        2.96751675       5.25907662      -0.50485468      -0.04801674       0.34217326      -0.19154885
C        4.18015651       5.44797901      -1.43328147      -0.03122828      -0.00062828       0.36646314
C        4.81820464       6.82979730      -1.26513143       0.00367740      -0.13446221      -0.00169988
C        6.01939968       6.99169254      -2.19530400      -0.28524686      -0.01195453       0.04668603
C        5.26635679       6.97757908       0.19010385      -0.29505293       0.00161671      -0.11983952
C        3.64000181       3.82362531      -3.06194375       0.43703487      -0.80711227      -0.09180507
C        3.01669464       3.31032498      -4.38035353      -0.20121381      -0.28235059       0.23540677
C        1.49145410       3.43685896      -4.32162232       0.10573474      -0.14197062      -0.20864626
C        0.81521287       2.66637121      -5.45737394      -0.33670376       0.33087528       0.19337421
C        0.52668717       0.36257134      -4.78604769      -1.13436725       0.36542284       0.05483122
C        1.16741058      -0.90320497      -4.54819780       0.01356206      -1.08924772       0.43096539
C        1.52138038      -1.99970598      -4.19161977       0.01054756       1.02297946      -0.41658854
C        2.11075556      -3.25686937      -3.73352545      -0.05060404      -0.53525437       0.14778375
C        3.36126785      -2.11800982      -1.96193668      -0.03971621       0.12761516       0.10027139
C        4.47498409      -2.63180206      -3.99963443      -0.02432569      -0.00725101      -0.00719740
C        1.14321785      -3.90644018      -2.72802412      -0.01299147       0.16221384       0.04799271
C        2.26527887      -4.20185390      -4.93521822       0.04151466       0.10692377       0.02978267
C        2.66966916       1.16030403      -5.69642642       0.44108905       0.02868869       0.12999645
C        3.46721532       1.86011479      -4.59605412      -0.13624035       0.07742840      -0.02951877
C        2.99712502       6.17683793      -3.50158819      -0.39754840       0.25584010      -0.09893186
C        1.62652193       2.25954103       0.82366026      -0.27043783       0.24940825      -0.45930988
C        1.42592004       2.01263504      -0.68122890       0.38453965      -0.38499783       0.05499056
C        0.76871753       0.64539210      -0.90637940       0.27689206       0.27542572      -0.25430275
C       -1.34077397       1.69178028      -1.22444705       0.03903692       0.38037804      -0.14087482
C       -0.69899720       3.04667885      -0.94828748      -0.29358410      -0.04713481      -0.08365906
C        1.58440027       4.03769393       4.91293140       0.29678122      -0.08762337       0.03228700
C        1.36329867       2.77149878       5.73609947      -0.23753807       0.24013087      -0.04282723
C       -0.02842344       2.21744296       5.44113524       0.30708044      -0.19065413      -0.12942853
C       -2.07706932      -2.25146182       1.14160624      -0.00675883      -0.22307122      -0.42551886
C       -2.55543938      -2.96389838       0.01362480       0.25877281       0.60986675       0.13812372
C       -2.37048264      -2.48029183      -1.27813330      -0.07993328      -0.11423196      -0.15493743
C       -1.72371883      -1.27470551      -1.43632796       0.08864717       0.09592601      -0.16348985
C       -1.24603287      -0.56069456      -0.32719846       0.08387878       0.17203507       0.31487413
C       -1.39898744      -1.04982040       0.95222284      -0.03711211      -0.05296236      -0.20308251
F        3.49459744       4.06123394      -5.46951567       0.04354005       0.06777612      -0.11776264
H       -6.74152239      -4.23331394       4.09852251      -0.03373415       0.04412859       0.08495636
H       -7.90911554      -4.03678780       2.78998003      -0.02193037       0.05769507       0.01707697
H       -7.54134217      -5.65721266       3.41736738      -0.00450009       0.02669974       0.04754240
H       -5.60716778      -3.85509901       1.88105653      -0.06482971      -0.26336273       0.08052097
H       -7.36810668      -5.40035209      -0.74736303      -0.06661880       0.11335070      -0.00062301
H       -8.25650099      -4.67821861       0.61362720       0.02755311       0.01912093      -0.05693971
H       -6.84707077      -3.82843523      -0.07875475      -0.06047311      -0.05218518      -0.02037372
H       -4.66940095      -8.34097056       4.57924342       0.09389763      -0.06345561       0.05678686
H       -2.21806132      -7.84933874       4.42508081       0.01925368      -0.03120279       0.02855376
H       -1.50919750      -5.84755713       3.10870384       0.00854749       0.02219920       0.00043063
H       -4.33593653      -5.78108571       0.12666046       0.12686321       0.23849975      -0.18645870
H       -4.05139205      -4.75193320      -1.28596256      -0.05668630      -0.07985948       0.17441389
H       -2.73495453      -6.84462758      -1.47492846       0.03417910      -0.10647838      -0.06689975
H       -1.64298440      -5.46286673      -1.29840688       0.06076086      -0.03166440      -0.02829050
H       -1.95925245      -6.52305810       0.07912369       0.02002874      -0.02453355       0.01736249
H       -2.05878889      -3.59486659       4.29794886       0.09642254       0.10217209       0.04307474
H       -1.09183621      -2.22169413       3.73542057       0.03445600      -0.12334919       0.10746828
H       -2.70906339      -2.56486669       6.37005470      -0.00234028      -0.05881953       0.06764282
H       -1.63993019      -1.21728344       5.97198923       0.06016181      -0.00285329       0.06938896
H       -3.32178773      -0.91110954       6.41483210      -0.02771420       0.04823170       0.07811386
H       -4.53565143      -3.25884795       4.70113270      -0.03512329      -0.06958090       0.01879748
H       -5.17131907      -1.62340598       4.91379226      -0.06177139       0.01583176       0.05717562
H       -4.83504282      -2.23602449       3.29465725      -0.05926571      -0.05040700      -0.03329107
H       -3.75864915       0.34802712       4.26109464       0.11036042      -0.14522008      -0.07756070
H       -3.28479700      -0.36903358       2.71088838       0.03553664       0.03728835       0.20626866
H        0.53479574       1.21868935       3.60411443      -0.10269607       0.11068229       0.04407380
H       -0.63071395       3.88302287       3.29648386       0.22061523      -0.12015476      -0.03776121
H        1.08340481       4.36173304       0.86830380       0.20748994      -0.24219886       0.04636459
H        3.85945421       3.60305842       0.26602612      -0.15588669       0.26600297      -0.17901844
H        4.93465985       4.69071176      -1.19924780      -0.15143576       0.24628901      -0.03892235
H        4.06728743       7.59929143      -1.46470136       0.09551506      -0.13408504       0.00416418
H        6.42856191       7.99343386      -2.10143801       0.07960592       0.05392698      -0.02619186
H        6.79407469       6.27712736      -1.92479993       0.06108575      -0.03015105      -0.00624985
H        5.75378532       6.82101096      -3.23463027       0.03448117       0.00734356      -0.08699569
H        5.68926556       7.96491161       0.34864577       0.06026138       0.06262875       0.05762992
H        4.42740301       6.84719578       0.87049934       0.05744749       0.03930905       0.06479124
H        6.02020375       6.23350110       0.43565222       0.07725497      -0.04995570       0.02895376
H        1.15994086       3.04614807      -3.35883981      -0.01392517       0.04226895      -0.13658075
H        1.19758452       4.48190815      -4.37387908       0.04269112      -0.00542951       0.09232092
H        1.08091341       3.10119811      -6.42414648      -0.08854575      -0.06906952       0.07499202
H       -0.26830303       2.68624229      -5.33004176       0.24006160       0.01732484      -0.08953794
H        3.12303400      -1.08177276      -2.25279057      -0.00189276      -0.13076106       0.01570407
H        2.62092165      -2.45346591      -1.24109690       0.03762848       0.07219435       0.00927369
H        4.33559624      -2.11990484      -1.47527477      -0.06880308       0.01650898       0.02259208
H        4.67740237      -3.42696374      -4.71096536       0.03360363       0.08239053      -0.04268433
H        4.24744394      -1.70320217      -4.54492396       0.01831804      -0.05311252       0.01098552
H        5.37788266      -2.46796968      -3.41426082      -0.01449677       0.00300429      -0.06717661
H        0.76920915      -3.18701243      -2.00249811       0.01514488      -0.07232820      -0.01714869
H        0.28593980      -4.31176887      -3.25876005      -0.03483985       0.01590898       0.02150929
H        1.65769771      -4.70946211      -2.20975418       0.04170792      -0.07743821       0.01465133
H        1.28309309      -4.50655435      -5.28575645       0.00452761       0.02004178      -0.00434578
H        2.77888905      -3.71835210      -5.76109860       0.02011429      -0.04143510       0.00845383
H        2.82059913      -5.08233187      -4.62495156       0.03355138      -0.05981130       0.01096390
H        2.93607163       0.10426971      -5.73741771      -0.00752543       0.19035047      -0.08205572
H        2.87997753       1.62461060      -6.66326878      -0.02391294      -0.14394027       0.05274274
H        4.52993510       1.86077082      -4.83942562      -0.04318093       0.00055375       0.10752201
H        3.33524964       1.33147304      -3.65098626       0.03532116       0.02490967      -0.18099318
H        2.04287953       6.38007874      -3.00654853       0.14226457       0.06603155      -0.13555440
H        3.59219834       7.08641532      -3.48592457      -0.06150400      -0.07943401      -0.05769737
H        2.83787355       5.89991421      -4.53663253       0.06588243       0.00494845       0.10095971
H        2.45001004       1.63124647       1.16303546       0.01022536      -0.07284930       0.04726929
H        0.71334551       1.97913061       1.34272583       0.25223636      -0.01406927      -0.01003372
H        2.39406477       2.04642154      -1.19286201      -0.26267295      -0.10161253       0.21183022
H        1.29969201      -0.11697352      -0.33492438       0.00809528       0.03303848      -0.07353585
H        0.82690736       0.38137761      -1.97899678       0.03151936       0.00327982       0.25228251
H       -1.31079299       1.47935113      -2.30690204      -0.02507538       0.04523164       0.22641444
H       -2.38052358       1.69802720      -0.89206934       0.09131554       0.03098420      -0.02921426
H       -0.81476360       3.28769871       0.11479920      -0.00708204       0.02481480      -0.11356798
H       -1.15301031       3.83488912      -1.55208310       0.00958503      -0.11138280       0.13749440
H        2.60467788       4.40836035       5.00652642      -0.22757289      -0.02143547       0.00830082
H        0.88463865       4.82008675       5.22486561       0.05668217      -0.03406932       0.00201008
H        1.46101782       3.00446645       6.79514784       0.05986824      -0.04110600       0.00960791
H        2.11901255       2.03163662       5.47047321       0.04233704       0.02299653       0.04580694
H       -0.79083554       2.92910423       5.76773848      -0.00762288      -0.06098211      -0.02582204
H       -0.18944098       1.27360280       5.95965304      -0.05804129       0.03701999       0.01587560
H       -2.72178473      -3.02576191      -2.14047639      -0.02362607      -0.03290919      -0.03414823
H       -1.57130512      -0.87359673      -2.42836191       0.00729943       0.02595487      -0.02015097
H       -0.98973950      -0.49192813       1.77736246      -0.03492964       0.04494365       0.01803379
