151
Properties=species:S:1:pos:R:3:MACE_forces:R:3 energy:=T -221.337424376936=T gnorm:=T 0.008141973072=T xtb:=T 6.7.1=T (edcfbbe)=T MACE_energy=-90873.48418947116 pbc="F F F"
C       -6.90119131      -4.73875124       2.87960369       0.11100601      -0.02278713      -0.38616570
N       -5.02093720      -6.83134110       3.07436055      -0.31428486       0.00216193      -0.01350060
O       -6.17870955      -5.51530448       0.66133719       0.01209740      -0.05921163       0.18492788
C       -5.76370468      -4.87827800       1.86839240      -0.08037411       0.20209242       0.05582157
N       -3.00008666      -4.04550792       0.22344834      -0.29266800      -0.00298889       0.11659920
O       -1.60021636       0.16926388       3.91868653       0.20084406      -0.79906354       0.15090977
C       -6.96779472      -4.71023634      -0.18664423       0.13614702      -0.02507612       0.13669112
N        0.01228493       3.26531347       3.33208088      -0.51802321       0.21907387       0.04220190
O       -0.47139166       0.52809160      -4.40170878       0.82432019      -0.03866102      -0.18332604
C       -4.64592698      -5.72936324       2.44098331       0.22047672       0.26863824      -0.23861306
N        1.20849582       3.90562724       3.66933595      -0.61912185      -0.17531890       0.93343541
O        4.06141345       3.23510100      -2.07715911      -0.20347622       0.24188189      -0.37573909
C       -4.10189096      -7.62006786       3.60159072       0.15729309      -0.17027093       0.12787556
N        2.88334361       4.44856661       0.45671688       0.02075902      -0.68350217       0.51036297
O        1.83004674       6.25901139      -0.39154004       0.25084638      -0.07178827      -0.02276955
C       -2.74406126      -7.34451624       3.54925723      -0.02344037       0.02296222      -0.01321838
N        3.57999397       5.35666997      -2.60927514       0.24708830       0.38747818       0.07530009
O        0.65249284       3.27065707      -1.19512149       0.00977853      -0.07219804       0.13984306
C       -2.34267759      -6.19828532       2.88856476      -0.15707214      -0.04846673      -0.04693016
N        1.41774697       1.38797675      -5.33011554       0.01582305       0.16497710      -0.26145873
O        3.18254436       4.77876526       3.06178169      -0.43752401      -0.35244821      -0.03777572
C       -3.29821884      -5.36778865       2.30379109      -0.01870644      -0.33560822       0.19743401
N        2.58691850      -3.34557648      -2.57517422       0.08051356       0.01753534      -0.01399477
O       -2.51452914       2.18641309       3.57137069       0.53399470      -0.29530489       0.10227579
C       -2.84927565      -4.16860399       1.58848211       0.16679941       0.25862578       0.37793978
N       -0.60632716       0.88700557      -0.45492278      -0.06732771      -0.18415782      -0.06396622
C       -3.37842325      -5.10158436      -0.68270290       0.13837333      -0.42722088      -0.22226677
C       -2.15016737      -5.86015607      -1.18222624      -0.15001280       0.15215870      -0.02846158
C       -2.20643573      -3.06415571       2.10089460      -0.07700888      -0.36122762       0.04807196
C       -1.83460671      -2.78929233       3.52255358      -0.16260979       0.02131892       0.01036683
C       -2.82189157      -1.90438136       4.31964639       0.20151996       0.22533954       0.06459010
C       -2.35745853      -1.84849027       5.77796363      -0.02882218       0.05890936      -0.24285062
C       -4.23252258      -2.48650677       4.25259027       0.19383480       0.19515491      -0.07936162
C       -2.87474628      -0.48088171       3.75194239      -0.52536718      -0.05071934      -0.07254085
C       -1.55671200       1.47998783       3.80311771      -0.37234700       1.09654528      -0.31591925
C       -0.15998712       2.01714894       4.07172096      -0.14939458      -0.04514446       0.18239100
C        2.12749785       4.23700869       2.74887024       0.92078110       0.59711163      -0.66771344
C        1.79241416       3.96762914       1.27845373      -0.07078357       0.15609892      -0.11344700
C        2.80369984       5.51643021      -0.34121612      -0.11356778       0.39442882      -0.19407968
C        4.02605673       5.71538531      -1.25569009      -0.04580555       0.00947244       0.35971223
C        4.62420504       7.11905615      -1.11984094       0.00536822      -0.14891691       0.01822673
C        5.88634930       7.25211828      -1.97094265      -0.29703960       0.02854112       0.04538948
C        4.96300815       7.36457308       0.35079808      -0.26535160      -0.01562991      -0.10330592
C        3.59901206       4.04826776      -2.88438043       0.49280997      -0.82834593       0.11412585
C        3.03558537       3.49770786      -4.21199334      -0.22469519      -0.33770213       0.22431564
C        1.50388573       3.53783495      -4.19258513       0.11325126      -0.10228831      -0.18341768
C        0.89804585       2.73524960      -5.34525936      -0.33926659       0.35253771       0.15606007
C        0.70702038       0.40008738      -4.75842525      -1.17357845       0.24887915       0.15707762
C        1.37961036      -0.86155918      -4.58548972       0.01126129      -1.02715255       0.40051489
C        1.73619543      -1.97487911      -4.29436524       0.05958337       0.88423393      -0.34971737
C        2.26431486      -3.30802409      -4.00885693      -0.01667534      -0.22181384      -0.06678815
C        1.44027539      -3.12627186      -1.71677825      -0.15297251       0.07942640       0.11103322
C        3.34083975      -4.50496752      -2.14322336       0.04382683       0.08708184      -0.06452542
C        1.20102956      -4.33626661      -4.44926533       0.05230077       0.04480671       0.14207153
C        3.53339004      -3.48605432      -4.85628003      -0.09513785      -0.00835558       0.05960437
C        2.84417231       1.33762090      -5.54620548       0.43193753       0.03781130       0.13024032
C        3.56055509       2.06948544      -4.41118535      -0.13364112       0.11842065      -0.04349262
C        2.90810628       6.38955331      -3.36887066      -0.34426981       0.21916399      -0.08304005
C        1.52282585       2.49003753       0.97110386      -0.23324591       0.21915692      -0.50896563
C        1.39946492       2.25173139      -0.54328260       0.40260029      -0.42477741       0.08086841
C        0.79537020       0.86871444      -0.81905468       0.30405622       0.28475714      -0.21928677
C       -1.31970216       1.86342469      -1.25619117       0.05633636       0.43071039      -0.07133253
C       -0.73483110       3.22814753      -0.90751311      -0.30925965      -0.08284404      -0.12379958
C        1.41559110       4.18666507       5.08331750       0.34391383      -0.04817103       0.03338043
C        1.33881649       2.88376978       5.87450199      -0.26673125       0.20241968      -0.02755392
C        0.00056676       2.20187934       5.59373462       0.31645794      -0.17799366      -0.11498549
C       -1.92916784      -2.21499455       0.98909333       0.00842693      -0.22365727      -0.47905568
C       -2.43603876      -2.86324293      -0.16509247       0.22665114       0.58156795       0.16684006
C       -2.33083734      -2.28461142      -1.42475358      -0.05830696      -0.06617379      -0.14457177
C       -1.72434112      -1.05122325      -1.52422662       0.06076133       0.10566113      -0.18655112
C       -1.20979806      -0.40357052      -0.39170691       0.00791385       0.08651462       0.32311133
C       -1.29236703      -0.98429062       0.85727108      -0.00678532      -0.03182761      -0.20769650
F        3.50281789       4.27183848      -5.28743434       0.03751813       0.07821979      -0.16656495
H       -7.32577851      -5.71930097       3.07026976      -0.00725121       0.01093381       0.05345682
H       -6.51156615      -4.33065142       3.80685672      -0.04214499       0.03934618       0.08285312
H       -7.67308424      -4.07355304       2.50140189      -0.01100674       0.04712121       0.02107502
H       -5.36366314      -3.88275615       1.61436738      -0.07105752      -0.27604711       0.07438078
H       -6.47041715      -3.75420081      -0.39027893      -0.05823257      -0.04685671      -0.02160570
H       -7.07463515      -5.27144872      -1.11123026      -0.07587485       0.10449665      -0.02926000
H       -7.95599385      -4.51888562       0.23808216       0.01444259       0.02240203      -0.04986788
H       -4.47837090      -8.50766750       4.09266761       0.09310235      -0.04523032       0.04375945
H       -2.02776601      -8.01027128       4.00340784       0.01773309      -0.02335728       0.01952195
H       -1.29646301      -5.94314243       2.80342206       0.02258641       0.02515515      -0.00037532
H       -4.05870688      -5.78260421      -0.16898368       0.08841045       0.26388794      -0.17760395
H       -3.91092349      -4.65559547      -1.52608170      -0.04495285      -0.08112724       0.17176431
H       -1.63987616      -6.33998216      -0.35040862       0.02237967      -0.02471392       0.01739890
H       -2.44675281      -6.62162295      -1.89793091       0.03216276      -0.08332419      -0.04838178
H       -1.45763406      -5.17343816      -1.66564266       0.03958783      -0.05304170      -0.01735571
H       -1.74256550      -3.73801812       4.05630285       0.07643287       0.11772103       0.02212755
H       -0.86187467      -2.29344491       3.53133214       0.03001464      -0.14340544       0.10355826
H       -3.00969079      -1.20074109       6.35969032      -0.02519972       0.03531805       0.08004352
H       -2.37869664      -2.84172422       6.21631925      -0.00122951      -0.09308231       0.06854286
H       -1.34307270      -1.46325697       5.83709535       0.04196822      -0.00448550       0.07006871
H       -4.60842702      -2.45189903       3.23444290      -0.07278408      -0.04252371      -0.05359942
H       -4.22239661      -3.52179689       4.58256728      -0.02921752      -0.08055385       0.00841348
H       -4.91059514      -1.92496713       4.88972478      -0.07027803       0.02650247       0.06640074
H       -3.63406557       0.11632081       4.26803526       0.15995756      -0.16410691      -0.09742517
H       -3.11360239      -0.49236024       2.68431021       0.00635660       0.04099780       0.23427264
H        0.58014393       1.29679321       3.71198104      -0.09459821       0.11408133       0.03921853
H       -0.78692778       3.87362300       3.52127824       0.26720746      -0.13063849      -0.07556432
H        0.91906071       4.57478408       1.01519546       0.22210573      -0.22230777       0.05520576
H        3.71392439       3.87639716       0.43853068      -0.14051983       0.27549132      -0.17990366
H        4.79461547       4.98502901      -0.98633272      -0.13765554       0.24046623      -0.05071598
H        3.87807045       7.85907266      -1.42073597       0.08823144      -0.12475055       0.02529932
H        5.70124128       7.01258746      -3.01333014       0.02440330      -0.01099697      -0.11757132
H        6.26488297       8.26926945      -1.91136230       0.08616836       0.02432317      -0.02874235
H        6.65357408       6.57479538      -1.60263368       0.07145866      -0.02696287       0.01278103
H        5.67400391       6.62471653       0.71139382       0.07771316      -0.04140813       0.02258962
H        5.40007289       8.35145229       0.47005296       0.05196933       0.06375937       0.05295614
H        4.07097948       7.30381905       0.97022461       0.04955555       0.04055268       0.05570770
H        1.17300171       3.12804144      -3.23765125      -0.00003763       0.04689792      -0.16047980
H        1.14787677       4.56497693      -4.24705475       0.04774261      -0.05884908       0.09989111
H        1.15033019       3.19687499      -6.30474365      -0.07451303      -0.09599106       0.10432295
H       -0.18672435       2.68843781      -5.23573790       0.24360222       0.02930844      -0.08787812
H        0.78757805      -4.00802888      -1.62943432       0.01719186       0.08436125      -0.01538497
H        1.79690547      -2.87155317      -0.71878076      -0.08722146      -0.02161537      -0.02369754
H        0.84704834      -2.29160140      -2.08772089       0.00221950      -0.08919901       0.10817120
H        2.82080654      -5.45836171      -2.31573646       0.02944958       0.01080722       0.03003165
H        4.30760397      -4.52704220      -2.63946840       0.00249834      -0.11633806       0.04033794
H        3.51377980      -4.40642181      -1.07191143       0.02495881      -0.06143554      -0.07030503
H        1.51351491      -5.33937987      -4.17156343       0.00876770      -0.07072406      -0.00281279
H        0.24142898      -4.12013824      -3.98546797       0.00862935      -0.04476430      -0.01779474
H        1.07797062      -4.29648371      -5.52770931      -0.04070059      -0.01558663      -0.04230142
H        3.86062803      -4.52136262      -4.84748874       0.03342280      -0.04974188       0.01325797
H        3.32027837      -3.20416587      -5.88406178       0.01974186      -0.03504082      -0.00980587
H        4.32586907      -2.84969219      -4.47483462       0.04780480       0.02245027       0.01778762
H        3.17198182       0.29823677      -5.58440303      -0.03489761       0.21957476      -0.07993413
H        3.06001377       1.82298169      -6.50222466      -0.00873267      -0.15402352       0.06878386
H        4.63056290       2.11968733      -4.60665899      -0.00849712      -0.00759071       0.08964130
H        3.41074875       1.53069184      -3.47538940       0.04753492       0.03861656      -0.15319002
H        2.03762642       6.73525624      -2.80508414       0.11419573       0.01044058      -0.12853882
H        3.58354524       7.22758494      -3.52342104      -0.05313894      -0.03187047      -0.05103904
H        2.60114056       6.02617182      -4.33995456       0.09351996       0.02563185       0.06514802
H        2.34986464       1.88446927       1.34150952       0.00630542      -0.09346907       0.04996604
H        0.59836412       2.18074301       1.45214118       0.25321124       0.00244651      -0.02338698
H        2.38991107       2.31106661      -1.00782682      -0.28537384      -0.08232933       0.20333392
H        1.31031713       0.11571864      -0.22022578      -0.00497098       0.05542216      -0.07802331
H        0.93292185       0.61352725      -1.88744854       0.00844851       0.01919572       0.23529695
H       -1.21784709       1.68422145      -2.33939315      -0.04253918       0.00271243       0.17701010
H       -2.37600384       1.83196757      -0.98542256       0.05655556       0.03735969      -0.05489827
H       -0.91450835       3.43291368       0.15352457      -0.00603268       0.03762855      -0.09229248
H       -1.18066694       4.02041794      -1.51117304       0.00580893      -0.09441043       0.12442210
H        2.39113256       4.66355042       5.18108426      -0.24456602      -0.06534577      -0.00339048
H        0.63785541       4.88232873       5.41771890       0.07321613      -0.04532281      -0.01479394
H        1.43936041       3.09549814       6.93798929       0.05305099      -0.03999259       0.00118619
H        2.15762695       2.23004875       5.57062656       0.03101294       0.03905719       0.04879754
H       -0.82021334       2.81869543       5.96840306       0.01261930      -0.05466018      -0.04311820
H       -0.04468087       1.22955856       6.08428896      -0.08055160       0.04377067       0.00039436
H       -2.71269277      -2.77267455      -2.30815513      -0.01766257      -0.04531282      -0.03313466
H       -1.62721498      -0.58028178      -2.49221937       0.01908344       0.00686843       0.00359607
H       -0.86509477      -0.47260043       1.70442026      -0.04567794       0.05236672       0.01053985
