151
Properties=species:S:1:pos:R:3:MACE_forces:R:3 energy:=T -221.337266897409=T gnorm:=T 0.004265822527=T xtb:=T 6.7.1=T (edcfbbe)=T MACE_energy=-90873.52053042651 pbc="F F F"
C       -7.29550071      -4.22404736       2.84017308       0.15546618      -0.08450930      -0.35826388
N       -5.68267049      -6.42445566       3.53973291      -0.34177829       0.03637053      -0.05112263
O       -6.41201399      -5.33272052       0.83698777      -0.01094130      -0.06436228       0.20306811
C       -6.06714731      -4.59569437       2.00959092      -0.07784730       0.21741142       0.02788111
N       -3.08925580      -4.24589803       0.61907157      -0.33063848       0.00228465       0.09170903
O       -1.79750913       0.26535399       3.88922893       0.14494008      -0.74575840       0.25785220
C       -6.95004800      -4.54733691      -0.20339377       0.07664156      -0.03070233       0.14058746
N        0.15795522       3.15049374       3.24954904      -0.38828801       0.22835028      -0.01363165
O       -0.62910620       0.40549190      -4.38473134       0.69290632      -0.03346535      -0.15594351
C       -5.12252196      -5.46816127       2.81465410       0.28263858       0.21204927      -0.26139333
N        1.43908783       3.61313150       3.57395390      -0.58785968      -0.09786657       0.95101689
O        4.01894007       2.94878278      -2.36084931      -0.23156371       0.29961428      -0.32193524
C       -4.91810284      -7.21169848       4.27509752       0.15372843      -0.16081380       0.15499395
N        3.02522517       4.08903962       0.31406878       0.01212193      -0.72202436       0.41937117
O        2.06074121       6.03278645      -0.30863703       0.22462489      -0.06646045      -0.04889431
C       -3.53984760      -7.08089146       4.34554686      -0.02461609       0.04946616      -0.03245243
N        3.53451122       5.10966358      -2.72483371       0.34099004       0.34880458       0.07027455
O        0.57399247       2.96730117      -1.22582856      -0.00038550      -0.04121345       0.12300575
C       -2.94499650      -6.08668970       3.58976531      -0.13750652      -0.04252905      -0.05495200
N        1.13745042       1.31445478      -5.48853930       0.03499776       0.13562168      -0.27742273
O        3.49426855       4.23958118       2.92064306      -0.44856260      -0.26567310      -0.00480280
C       -3.73530260      -5.26109876       2.79263866      -0.08575618      -0.29267836       0.22197077
N        3.76399334      -2.84792731      -3.45987598       0.02239847      -0.13081458      -0.01280158
O       -2.49911385       2.35992155       3.49488156       0.48545273      -0.32166537       0.09732451
C       -3.10357705      -4.20265679       1.99697874       0.13659400       0.28295024       0.37551528
N       -0.54871745       0.56509481      -0.33146900      -0.15919143      -0.20198874      -0.13016569
C       -3.42201329      -5.39600557      -0.18477944       0.11012018      -0.46542972      -0.14886096
C       -2.21990088      -6.32660502      -0.33705436      -0.17026947       0.17393367      -0.06093454
C       -2.47422087      -3.06500079       2.44854903      -0.08394286      -0.36889291       0.06882036
C       -2.22215930      -2.65311466       3.86422986      -0.20193081       0.06385412      -0.03858744
C       -3.20806659      -1.62660076       4.46964773       0.17672932       0.21184371       0.01687340
C       -2.85517334      -1.42911134       5.94626655      -0.00352446       0.02230673      -0.23205857
C       -4.64567660      -2.12872800       4.34784058       0.22819747       0.18027782      -0.07148535
C       -3.11872635      -0.27687236       3.74590471      -0.55112812      -0.07986365      -0.04574497
C       -1.62115117       1.56203180       3.73980684      -0.18727305       1.10426267      -0.37489037
C       -0.16930987       1.93634203       3.99054340      -0.17611045      -0.06713203       0.22292591
C        2.36965812       3.84522263       2.63485318       0.84636314       0.41454833      -0.75676869
C        1.95518653       3.63396430       1.17414733      -0.00368656       0.19101800      -0.05031244
C        2.97273666       5.21902158      -0.39438544      -0.05269526       0.40561672      -0.16156769
C        4.11874150       5.38534052      -1.40541601       0.04092517       0.02217349       0.36998941
C        4.81856771       6.74057300      -1.26011873      -0.01363615      -0.13835775      -0.02592700
C        5.89351637       6.92080384      -2.33026343      -0.29322995       0.00492146       0.09233500
C        5.45333347       6.79586037       0.13045085      -0.28554744       0.04900924      -0.06840030
C        3.50911406       3.81845192      -3.07533182       0.46598491      -0.88020417       0.02525226
C        2.84688427       3.35979965      -4.39475524      -0.14617478      -0.27591375       0.19585933
C        1.32025494       3.42518963      -4.28070704       0.08941871      -0.14278196      -0.18104337
C        0.61859676       2.65947529      -5.40795589      -0.34022045       0.31459984       0.24057188
C        0.51335384       0.30890081      -4.84272583      -1.12229984       0.32366613       0.17802879
C        1.25380942      -0.91687426      -4.70841121       0.13584126      -1.13291255       0.35686616
C        1.72364905      -1.99240147      -4.43050349      -0.13047073       1.04136389      -0.34826461
C        2.45538463      -3.19711452      -4.03890432       0.02404043      -0.50856095       0.11887823
C        3.68206053      -1.98934374      -2.29325558      -0.03704927       0.12022768       0.09284131
C        4.71297042      -2.30643462      -4.41567614      -0.00036160      -0.01498050      -0.02319419
C        1.61065179      -3.95435089      -2.99965707      -0.01576102       0.13494265       0.05259522
C        2.64299055      -4.10185020      -5.26644454       0.02381273       0.12210889       0.03161718
C        2.53918338       1.28794019      -5.83211070       0.47640974      -0.00703221       0.10919451
C        3.34816603       1.94718998      -4.71696116      -0.10233618       0.05799120      -0.02973620
C        2.74665793       6.15963311      -3.33451071      -0.43292132       0.20039679      -0.12050850
C        1.62690450       2.17244404       0.85671117      -0.26654995       0.25716353      -0.44187856
C        1.39253680       1.95826080      -0.64904495       0.39724496      -0.42466680       0.04430536
C        0.78513859       0.57030648      -0.89045755       0.30462653       0.29790313      -0.20962614
C       -1.38130373       1.53307933      -1.02676740       0.03940847       0.38765558      -0.16752930
C       -0.77578758       2.91403122      -0.79133288      -0.31504373      -0.07985033      -0.05499263
C        1.71138999       3.84986844       4.98542256       0.30136722      -0.11276047       0.00281031
C        1.44879261       2.57219156       5.77784695      -0.21995308       0.24431468      -0.01561392
C        0.02162570       2.09970617       5.51118522       0.30508432      -0.19653343      -0.14518940
C       -2.04394560      -2.36525267       1.28321462       0.01340045      -0.23134052      -0.42938423
C       -2.43811976      -3.13623426       0.16151318       0.26182377       0.60653459       0.13042204
C       -2.16781761      -2.71335124      -1.13656807      -0.03699024      -0.11287619      -0.19388869
C       -1.53689195      -1.50047749      -1.30917009       0.09958532       0.10059919      -0.17253150
C       -1.15002008      -0.72602427      -0.20563837       0.09139904       0.13030661       0.36256723
C       -1.36992303      -1.16428054       1.08179753      -0.02490369      -0.05045315      -0.21246216
F        3.26089802       4.19553516      -5.44796046       0.01586575       0.07337959      -0.14966610
H       -7.86395958      -5.12444294       3.05109858      -0.00135292       0.01791421       0.05533213
H       -6.97989370      -3.77366299       3.77546448      -0.04344358       0.05059190       0.07758925
H       -7.92088423      -3.51476731       2.30462328      -0.01871584       0.04613305       0.01309450
H       -5.53171852      -3.68355841       1.70075224      -0.10978278      -0.24292728       0.09389692
H       -7.88104289      -4.05958658       0.09491044       0.01364503      -0.00587355      -0.05799918
H       -6.23255864      -3.78437994      -0.52516869      -0.04550620      -0.00594222      -0.02431881
H       -7.15087496      -5.23331522      -1.02216151      -0.02268350       0.10784852      -0.04911482
H       -5.44157046      -7.97304928       4.83666897       0.07278699      -0.07296714       0.06846371
H       -2.95334524      -7.73635721       4.96817175       0.01829536      -0.04187762       0.03569796
H       -1.87375770      -5.94782440       3.60040440       0.02466562       0.02740497      -0.00748263
H       -4.25464005      -5.92692136       0.28133039       0.14712946       0.22412200      -0.18592150
H       -3.74653470      -5.04187151      -1.16568348      -0.08168927      -0.04883662       0.17363924
H       -2.47535187      -7.15573403      -0.98946441       0.03689968      -0.11797553      -0.04679482
H       -1.37851856      -5.78625332      -0.76505667       0.05332229      -0.03290858      -0.01611763
H       -1.92414263      -6.72167891       0.63145294       0.01983338      -0.02507651       0.03507062
H       -2.25087738      -3.54112658       4.49749711       0.08869981       0.08176525       0.04981890
H       -1.22062500      -2.22305807       3.91784146       0.01829286      -0.12750860       0.11963039
H       -3.00685022      -2.35348991       6.49616345      -0.00000677      -0.07698022       0.06995347
H       -1.81607019      -1.12840773       6.05085394       0.04188895       0.00334951       0.06701758
H       -3.48443386      -0.65934555       6.38707718      -0.04025234       0.04492868       0.07873602
H       -4.94903773      -2.15967582       3.30563088      -0.06771555      -0.05341877      -0.06106690
H       -4.72536862      -3.13079271       4.76138550      -0.04011724      -0.06235760       0.01568236
H       -5.32682815      -1.47428865       4.88580762      -0.07488774       0.02881514       0.04484957
H       -3.83509144       0.43876600       4.16126708       0.12579098      -0.17815152      -0.06738954
H       -3.32595179      -0.39504575       2.67874017       0.02236884       0.06986592       0.17778348
H        0.47542207       1.12926443       3.63039187      -0.09055982       0.13107201       0.04073479
H       -0.54188250       3.86407803       3.45771243       0.19851049      -0.13658104      -0.08451534
H        1.09418789       4.27858705       0.96546238       0.21593913      -0.26607535       0.03552256
H        3.81053485       3.46561960       0.20133066      -0.14983909       0.29178414      -0.15439143
H        4.86225146       4.59952853      -1.24013641      -0.16484894       0.25716693      -0.03551887
H        4.07352473       7.53890783      -1.32112077       0.09270648      -0.13481547      -0.01917049
H        6.38285295       7.88217774      -2.20344037       0.07629733       0.05044720      -0.03306649
H        6.64239188       6.13772164      -2.23697866       0.07922206      -0.04226159      -0.01740643
H        5.47917151       6.87317917      -3.33319345       0.02455696       0.00519368      -0.08670328
H        5.89824891       7.77314326       0.29757667       0.05025865       0.02984864       0.04945992
H        4.70893267       6.61844623       0.90446997       0.06685418       0.03165208       0.05868396
H        6.23095515       6.04146120       0.22605282       0.06641437      -0.05178154       0.01460748
H        1.03633286       3.00586221      -3.31385591      -0.01479096       0.04592313      -0.14947375
H        0.99034179       4.46137581      -4.30440544       0.05381378      -0.03061279       0.11652742
H        0.78814836       3.15402017      -6.36772515      -0.07184674      -0.07371680       0.08468507
H       -0.45259326       2.60637206      -5.20636910       0.22808014       0.04125237      -0.11340120
H        3.29584701      -0.98260176      -2.52010350       0.01439671      -0.12094133       0.00993693
H        3.04837317      -2.44074132      -1.53582826       0.01932936       0.06094155       0.02035703
H        4.68312125      -1.88406775      -1.87799843      -0.06576746       0.00666335       0.02792563
H        4.96875358      -3.05823270      -5.15677644       0.01914886       0.09191098      -0.04456288
H        4.34245663      -1.40431399      -4.92467031       0.02426900      -0.04151235       0.00798410
H        5.62193945      -2.04217523      -3.87886477      -0.01814253      -0.00677451      -0.06004410
H        2.22610151      -4.71279371      -2.52556884       0.04765495      -0.06387204       0.01001106
H        1.21080535      -3.28483297      -2.24155708       0.02158874      -0.06061571      -0.00661748
H        0.76893585      -4.43231090      -3.49292242      -0.03560342       0.01469094       0.01512100
H        1.68274605      -4.51120476      -5.56720671      -0.00307889       0.02184445      -0.01114126
H        3.05140694      -3.55278390      -6.10987738       0.02287136      -0.03772479       0.00661557
H        3.31108411      -4.91744935      -5.00550809       0.03681427      -0.05894187       0.01021157
H        2.86330420       0.25556486      -5.97153308      -0.04644508       0.23352975      -0.05262494
H        2.67139400       1.83576818      -6.76860088      -0.01783395      -0.14175652       0.05096520
H        4.40137700       2.00833843      -4.99286575      -0.05066291       0.00021875       0.10920009
H        3.27056075       1.35242053      -3.80535245       0.02746601       0.04879872      -0.18696554
H        3.26525966       7.10643283      -3.22066738      -0.04827486      -0.05168193      -0.05130671
H        2.60758713       5.97630942      -4.39382818       0.06074987      -0.00128759       0.10473949
H        1.78045573       6.23867595      -2.82950466       0.11596237       0.09814583      -0.11089565
H        2.45653441       1.53542483       1.16326204       0.01314771      -0.07244931       0.04965832
H        0.72667468       1.87889140       1.39077942       0.24430844      -0.00927728       0.00685227
H        2.34071761       2.04381513      -1.19041391      -0.23719883      -0.10092052       0.20805264
H        1.38766594      -0.18755562      -0.38684413      -0.01428125       0.04492945      -0.07404239
H        0.78397120       0.35344906      -1.97467918       0.03202098       0.00300267       0.22626863
H       -1.43724495       1.32963190      -2.11074324      -0.00118071       0.04366356       0.20059828
H       -2.38764920       1.49773188      -0.60630150       0.06702753       0.03291585      -0.05011017
H       -0.84456376       3.16251346       0.27383930      -0.01671473       0.00729246      -0.09961007
H       -1.29752334       3.67529716      -1.37397448       0.01574951      -0.09813074       0.13263930
H        2.75028669       4.16924687       5.06409567      -0.23288840      -0.01659513       0.00580971
H        1.05811775       4.65599267       5.33603885       0.05600654      -0.03861249      -0.00312218
H        1.59233519       2.76578257       6.83957145       0.05242971      -0.04264307       0.00860599
H        2.15544334       1.80246187       5.46539637       0.04521853       0.02770866       0.04772803
H       -0.69324012       2.83703322       5.88398902      -0.01495102      -0.05166044      -0.03188119
H       -0.17109446       1.14871243       6.00591419      -0.05842202       0.03682225       0.01582136
H       -2.45273736      -3.30266590      -1.99485958      -0.02320361      -0.03592504      -0.02255122
H       -1.33792561      -1.13437124      -2.30731760       0.00041309       0.01056094      -0.01863843
H       -1.02545118      -0.56222601       1.90463514      -0.02236174       0.03247501      -0.01010724
