151
Properties=species:S:1:pos:R:3:MACE_forces:R:3 energy:=T -221.336821651236=T gnorm:=T 0.009249609868=T xtb:=T 6.7.1=T (edcfbbe)=T MACE_energy=-90873.47735524956 pbc="F F F"
C       -7.28579760      -4.85368766       2.97993331       0.16748288      -0.08998430      -0.33432425
N       -5.26462461      -6.63384035       3.73091662      -0.32652179      -0.01893718      -0.03362169
O       -6.20407916      -5.80089645       0.98553009      -0.00084770      -0.04784248       0.17621448
C       -6.01609803      -4.98324031       2.13787288      -0.10307327       0.19354966       0.07027971
N       -3.03399860      -4.20445393       0.66195544      -0.30771292       0.03489322       0.15761319
O       -2.18748113       0.56621517       3.77877969       0.05592291      -0.66583554       0.32925935
C       -7.00409125      -5.21975593      -0.02159775       0.07353577       0.00527628       0.13498129
N       -0.07762122       3.33309395       3.02452015      -0.36016509       0.36244172      -0.00921381
O       -0.45144909       1.03912539      -4.78200517       0.90276505      -0.09341305      -0.20880192
C       -4.90713467      -5.62339223       2.95141673       0.21484771       0.25935338      -0.23460348
N        1.17052656       3.80164512       3.44776037      -0.67995506      -0.07880227       0.86303758
O        4.30160979       2.88694565      -2.10469039      -0.13772140       0.28947242      -0.40175227
C       -4.35746894      -7.22250526       4.48922838       0.08111293      -0.14003426       0.13526039
N        3.09590085       4.02130874       0.35963828      -0.25467692      -0.52038474       0.46969273
O        2.24468001       5.92476152      -0.50304622       0.26572582      -0.07921938       0.06268649
C       -3.03161249      -6.82156133       4.53559224       0.00148845       0.05607352      -0.06402152
N        4.14301989       5.07906412      -2.55839905       0.33466627       0.33819557       0.08868591
O        0.83274340       2.84697316      -1.41898422       0.00702169      -0.12051382       0.12042208
C       -2.64768703      -5.77408377       3.71945846      -0.12819264      -0.08212074      -0.01028074
N        1.59266648       1.62187711      -5.60592409       0.08951489       0.15281121      -0.22743938
O        3.28215937       4.38415230       2.94762308      -0.56275446      -0.37604923       0.05497406
C       -3.58709231      -5.15943117       2.89096373      -0.03803408      -0.24107457       0.20899012
N        3.37605364      -3.01669407      -3.98746662       0.04134341       0.08898906      -0.02074514
O       -2.68503230       2.51907344       2.80200955       0.38343157      -0.30098956       0.31233569
C       -3.12534239      -4.06519393       2.02788744       0.08080659       0.34231268       0.31266210
N       -0.50318006       0.56844403      -0.51197942      -0.24823594      -0.32725040       0.01901440
C       -3.24287602      -5.42655886      -0.07323875       0.14234689      -0.57198112      -0.11464691
C       -1.97325078      -6.27711647      -0.09833354      -0.17674041       0.16890251      -0.04603446
C       -2.61587114      -2.84795113       2.42343549      -0.13768657      -0.37530389       0.11088027
C       -2.56367154      -2.31818502       3.82052031      -0.09862946       0.03876327      -0.02903769
C       -3.67210816      -1.30320261       4.19328014       0.13935642       0.22474440       0.05714694
C       -3.60899166      -1.04352437       5.70094342       0.06285989      -0.01786444      -0.22489265
C       -5.05084630      -1.84736944       3.82268032       0.25359101       0.17562473      -0.08610773
C       -3.47357522       0.02165306       3.44905119      -0.53883948      -0.14555723      -0.17003109
C       -1.91441369       1.79407012       3.39165439      -0.09961766       1.03418035      -0.60553308
C       -0.51342169       2.19524820       3.82331943      -0.23050707      -0.06631585       0.11612346
C        2.18794599       3.95735080       2.58851763       1.11789918       0.43203336      -0.70004761
C        1.91992096       3.64173341       1.11049904      -0.02279323       0.23126079      -0.15706164
C        3.16906867       5.12903119      -0.37796006      -0.07634544       0.33618804      -0.24164107
C        4.48771345       5.30335470      -1.14696547      -0.06176173      -0.06470722       0.34476262
C        5.14532042       6.64701221      -0.81712004      -0.02062739      -0.15278415      -0.05232380
C        6.47198695       6.81499438      -1.55569641      -0.31920805      -0.02304679      -0.02073015
C        5.38651971       6.70061745       0.69299556      -0.24261475       0.05504152      -0.14237993
C        3.99933632       3.78857908      -2.89204509       0.43949179      -0.89735526       0.08891798
C        3.44158313       3.38200097      -4.27037461      -0.23680620      -0.31873521       0.14354337
C        1.93683983       3.66842309      -4.33675897       0.04698230      -0.09538665      -0.08183923
C        1.30145916       3.03589405      -5.57825746      -0.34663761       0.38756587       0.14031660
C        0.71244180       0.74848511      -5.07733975      -1.23487786       0.35874068       0.06278496
C        1.20310317      -0.59129059      -4.88431353      -0.01751768      -1.13180016       0.57462324
C        1.49566781      -1.71131984      -4.55028203      -0.10052102       1.03117575      -0.45378825
C        1.92451695      -3.06449417      -4.21220198      -0.17853506      -0.36148312      -0.07357476
C        4.01355967      -4.30218627      -3.79096239      -0.04084251      -0.01133230      -0.03591990
C        3.78370377      -2.08803141      -2.95195011       0.01706844       0.08476496       0.09141888
C        1.09571486      -3.53819995      -3.00049738       0.19275234       0.08549789      -0.01182506
C        1.60169989      -3.94420392      -5.43333286       0.02985037       0.02720304       0.14250201
C        3.00747288       1.35123985      -5.72964434       0.45246770      -0.09912992       0.11554950
C        3.74265232       1.89665061      -4.50629165      -0.07292887       0.12912112       0.02855422
C        3.62212438       6.20864691      -3.30154505      -0.28733816       0.25401339      -0.17784787
C        1.57610876       2.17375939       0.84259662      -0.15841460       0.25658844      -0.34359942
C        1.52582906       1.86061773      -0.66390168       0.38579641      -0.29803438       0.03832440
C        0.89297333       0.48077316      -0.88754404       0.30398434       0.29069123      -0.22711585
C       -1.18979370       1.49060667      -1.39790232       0.04347422       0.31178649      -0.27965860
C       -0.56719987       2.86693268      -1.18635873      -0.22733102      -0.00071565      -0.08440261
C        1.30421966       4.14393393       4.85765715       0.22715664      -0.10870561       0.05311091
C        0.90957274       2.94619983       5.71709584      -0.12996964       0.21633244      -0.06299608
C       -0.49751939       2.49158802       5.33468750       0.31239444      -0.23511308      -0.04546290
C       -2.14987362      -2.20977253       1.23648990       0.05118405      -0.32505968      -0.43966288
C       -2.43106414      -3.08654541       0.15750958       0.21532257       0.69170128       0.01081237
C       -2.10879934      -2.74930085      -1.15321161      -0.03991218      -0.14920720      -0.16816113
C       -1.48580797      -1.54282637      -1.38249129       0.09113137       0.13332920      -0.12011167
C       -1.16043845      -0.68668518      -0.32008982       0.08418116       0.21420489       0.22940612
C       -1.48039671      -1.01445648       0.98024794       0.00233863      -0.05514184      -0.16218189
F        4.09161432       4.10534114      -5.28629191       0.02896336       0.09301915      -0.11374289
H       -7.67316385      -5.84768277       3.18826113      -0.01030931       0.07327603       0.04797700
H       -7.05053416      -4.35913188       3.91807680      -0.03923012       0.01937300       0.04717675
H       -8.03792564      -4.26835141       2.45721632      -0.03420341       0.03059223      -0.00683959
H       -5.68305999      -3.98629866       1.80675680      -0.06009409      -0.26654335       0.07034973
H       -6.92608336      -5.88180440      -0.88104805      -0.08412618       0.10929259      -0.03481086
H       -8.05111176      -5.14515049       0.28400918       0.04721150       0.00811570      -0.04687266
H       -6.63371805      -4.22294960      -0.28699844      -0.02969595      -0.06128060      -0.02337526
H       -4.72166782      -8.04338859       5.09171509       0.09795298      -0.04502027       0.07924005
H       -2.32586927      -7.31524284       5.18361113       0.03028660      -0.04330925       0.03374357
H       -1.62410173      -5.42742235       3.70406193       0.00352200       0.00461461      -0.00830941
H       -4.06118417      -5.98490426       0.38697460       0.17401677       0.22255061      -0.22784351
H       -3.53777044      -5.16419408      -1.09202673      -0.07186698      -0.04043823       0.17713067
H       -1.15246183      -5.71437293      -0.53803739       0.05178795      -0.03372432      -0.01039603
H       -1.69509390      -6.56720620       0.91238918       0.01868388      -0.02276793       0.01102731
H       -2.14217517      -7.17496865      -0.68433854       0.04321999      -0.10723132      -0.04822520
H       -2.64777218      -3.15946779       4.51083991       0.08681853       0.11471216       0.04660284
H       -1.59941716      -1.83286143       3.98301472      -0.01692926      -0.14207956       0.11846297
H       -2.63704315      -0.64196293       5.97421597       0.03330438       0.00169564       0.09229049
H       -4.37517511      -0.33042547       5.99455395      -0.04612098       0.07507706       0.06283141
H       -3.77272261      -1.96700822       6.24985355      -0.00080855      -0.05849077       0.04535747
H       -5.20255926      -2.81877471       4.28545417      -0.05156429      -0.05695418       0.00518500
H       -5.83251870      -1.17263799       4.16007911      -0.09741440       0.02696957       0.05429625
H       -5.13754290      -1.95837488       2.74471321      -0.05974161      -0.06183183      -0.01816237
H       -4.24226905       0.74850547       3.72661836       0.10546942      -0.14118897      -0.01547666
H       -3.51841573      -0.12699945       2.36649398       0.01400767       0.06622515       0.20746947
H        0.16228482       1.35832375       3.62206447      -0.08250702       0.12920039       0.01027604
H       -0.77759948       4.07660131       3.08999894       0.26722558      -0.24473460      -0.08627812
H        1.10775206       4.29108040       0.76421850       0.20911628      -0.22634263       0.07331194
H        3.89935426       3.42495491       0.45647045       0.03722576       0.22025294      -0.21616648
H        5.17863263       4.50029900      -0.87272135      -0.16875280       0.24521958      -0.03545799
H        4.45458556       7.45370190      -1.07535775       0.07725156      -0.10402561       0.01203669
H        6.88594837       7.79555975      -1.34368810       0.10467017       0.07628632      -0.01396471
H        7.18012864       6.06100923      -1.22014242       0.08383070      -0.05491745       0.01376551
H        6.35521678       6.71175146      -2.63059159       0.05416561       0.00135730      -0.08015257
H        5.82967739       7.65474504       0.96346387       0.04482049       0.02861629       0.06906121
H        4.45473428       6.58462381       1.24212687       0.05976567       0.03543051       0.07304932
H        6.06008958       5.90530116       1.00322235       0.06060738      -0.04244123       0.02133654
H        1.47978499       3.26009552      -3.43130271       0.02995408       0.05712718      -0.17457787
H        1.75371737       4.74011046      -4.35166095       0.04672535      -0.02269910       0.06951304
H        1.70737498       3.49209791      -6.48600295      -0.10458486      -0.07989868       0.08615596
H        0.21746806       3.16813524      -5.55295464       0.27259016      -0.02523859      -0.05363556
H        3.77267847      -4.97280892      -4.61049608       0.05425592      -0.05922597       0.06098390
H        5.09085767      -4.14062931      -3.79090276      -0.02336860      -0.08253247       0.01760622
H        3.74198001      -4.78122907      -2.83853607       0.01156529      -0.02655738      -0.05675705
H        3.59659369      -2.46358600      -1.93345840       0.00053837       0.05739051      -0.07525658
H        4.85338589      -1.90450499      -3.05560495      -0.06086308       0.00691091       0.06948331
H        3.26131788      -1.14114738      -3.07388400       0.12733987      -0.05561811       0.09555435
H        1.19496354      -2.84992138      -2.16345395      -0.03419256      -0.04602180      -0.01221623
H        0.04642865      -3.58325338      -3.27783640      -0.03506708      -0.00415118       0.04113565
H        1.41921477      -4.52852496      -2.69045529      -0.01082835      -0.05846941       0.01931063
H        1.62102150      -4.99570595      -5.16436853       0.03648759      -0.09254577      -0.01670152
H        0.60834670      -3.70356183      -5.80004210      -0.03459497      -0.03795487       0.01801741
H        2.32073376      -3.75317469      -6.22409835       0.02929781       0.00516974      -0.03571039
H        3.17245588       0.27676968      -5.81512241       0.01620221       0.26141320      -0.08154802
H        3.36991532       1.84658975      -6.63485307      -0.08761934      -0.15233539       0.04668791
H        4.82012160       1.77285738      -4.62226199      -0.07967255       0.00019228       0.10467764
H        3.43299019       1.35275851      -3.61248728       0.07698854       0.04796066      -0.15069208
H        3.54015694       5.97215848      -4.35484550       0.04451753       0.01100083       0.11560199
H        2.64753577       6.49285962      -2.89627050       0.13320247       0.07879983      -0.08797944
H        4.30374254       7.04897171      -3.19883664      -0.08470597      -0.04496137      -0.04018468
H        2.33690760       1.53384586       1.28862252       0.00289246      -0.09660280       0.07577655
H        0.60884909       1.94491972       1.27922221       0.20473858      -0.03360485       0.07924748
H        2.53860812       1.88278747      -1.08067701      -0.31143019      -0.09626059       0.13318385
H        1.38872721      -0.26169611      -0.26017132      -0.01512433       0.03715309      -0.06624445
H        1.01852765       0.19224123      -1.94863015       0.02450583       0.00041354       0.24035036
H       -1.09906995       1.20457421      -2.46181710      -0.05491681       0.09613028       0.28301267
H       -2.24735601       1.52231208      -1.13010995       0.09743434       0.01781652      -0.02541778
H       -0.77915763       3.20645558      -0.16566921      -0.00029287       0.00731770      -0.09227354
H       -0.96522160       3.58950463      -1.90085048      -0.01753956      -0.09092257       0.15090855
H        2.34149052       4.43524092       5.02170382      -0.23471607      -0.00961389      -0.03354085
H        0.65272717       4.99776427       5.07422887       0.04763862      -0.03995872       0.01151348
H        0.95262307       3.22209786       6.76992708       0.01928295      -0.03599803      -0.00378305
H        1.61512460       2.13185737       5.54389081       0.00759757       0.06131774       0.06412602
H       -1.22260677       3.27784946       5.56102122      -0.00824057      -0.06984222      -0.04897466
H       -0.77704072       1.59295075       5.88398963      -0.05968643       0.06588741      -0.01819659
H       -2.34005091      -3.41077962      -1.97483098       0.00464342      -0.01884516      -0.03339321
H       -1.23654408      -1.24230022      -2.39120656       0.02786690      -0.01179269       0.00238146
H       -1.19309112      -0.34131726       1.77029583      -0.00578214       0.04548338      -0.02551609
