151
Properties=species:S:1:pos:R:3:MACE_forces:R:3 energy:=T -221.338509336722=T gnorm:=T 0.007739481456=T xtb:=T 6.7.1=T (edcfbbe)=T MACE_energy=-90873.53471627044 pbc="F F F"
C       -7.09468583      -4.69705702       2.76751894       0.16879168      -0.05788925      -0.36068135
N       -5.19180962      -6.69969037       3.30968886      -0.30254470      -0.00057284      -0.02508108
O       -6.18051520      -5.64275040       0.69210166      -0.02043595      -0.03692213       0.16375102
C       -5.87544496      -4.89229018       1.86604846      -0.09568958       0.20725887       0.06308660
N       -3.02595017      -4.12352521       0.34580411      -0.33176261       0.01964004       0.08837659
O       -1.87325631       0.31348895       3.83101200       0.21327533      -0.66744882       0.27541410
C       -6.93173176      -4.94011190      -0.27319758       0.08897910      -0.01051341       0.12449911
N       -0.12200281       3.33700081       3.09216104      -0.48429202       0.16974647      -0.00449703
O       -0.43247308       0.81971639      -4.59691041       0.71717341      -0.19700281      -0.02619782
C       -4.78808510      -5.66159015       2.59206130       0.23847206       0.24768465      -0.25238973
N        1.09210790       3.91336405       3.47537494      -0.67087718      -0.06103456       0.92698013
O        4.31273168       2.94190617      -1.91016666      -0.12451775       0.25236829      -0.34530498
C       -4.30093251      -7.41788467       3.97070093       0.13043414      -0.11058214       0.09424047
N        3.00005208       4.23009162       0.37748371      -0.02159322      -0.66308996       0.48175932
O        2.16958138       6.10879079      -0.56438318       0.30749623      -0.06964955       0.00599254
C       -2.94457691      -7.13229093       3.96869078      -0.02913462       0.03674721      -0.02363011
N        4.11425902       5.08107781      -2.54723482       0.31004161       0.43266369       0.07353763
O        0.54724728       3.18272225      -1.36707380      -0.06418953      -0.08266082       0.20623832
C       -2.51345086      -6.05109216       3.22213971      -0.14933390      -0.04871141      -0.06509924
N        1.65222834       1.34508138      -5.33280678       0.12180699       0.13811171      -0.21702724
O        3.18079443       4.54891888       2.97009640      -0.37725326      -0.24347336      -0.01570566
C       -3.43746919      -5.29380003       2.50267094      -0.03666225      -0.34486222       0.23558977
N        2.73276603      -3.37594634      -2.87417073       0.04158741      -0.12984412      -0.05781889
O       -2.67249319       2.27143593       3.08481463       0.46982077      -0.27100763       0.21580394
C       -2.95816967      -4.14800080       1.72231973       0.13592153       0.30609039       0.38779643
N       -0.68021475       0.81170708      -0.51077859      -0.05499166      -0.18698242      -0.17775606
C       -3.30502673      -5.26151385      -0.49527147       0.17021432      -0.46086169      -0.17104545
C       -2.03295015      -6.06073074      -0.77415934      -0.17534211       0.15203436      -0.04730668
C       -2.37279542      -2.99482589       2.19496962      -0.06961863      -0.39474624       0.06272050
C       -2.09021780      -2.62903800       3.61653917      -0.19421872       0.04423176      -0.03301614
C       -3.13099682      -1.71218018       4.29967558       0.15792255       0.23167256       0.04979981
C       -2.76299255      -1.58356614       5.78049993      -0.01271255       0.01243324      -0.23856379
C       -4.53331319      -2.30523203       4.17070650       0.19371716       0.18676393      -0.07540663
C       -3.14968905      -0.31874804       3.66020239      -0.57157487      -0.12113711      -0.13213658
C       -1.76921826       1.58992235       3.51567079      -0.24144607       1.02386200      -0.50171814
C       -0.37989132       2.11067583       3.84211051      -0.16432734      -0.04117685       0.17487043
C        2.09329944       4.11655408       2.60598859       0.90397412       0.39067481      -0.66953400
C        1.81799098       3.85376503       1.12010712      -0.03528211       0.16112984      -0.08326670
C        3.08611446       5.31073940      -0.40041115      -0.12809540       0.38940405      -0.20305589
C        4.42098899       5.44077015      -1.15395362      -0.09704100      -0.01840157       0.36819035
C        5.05853938       6.81739027      -0.94575797       0.00615700      -0.14966700       0.03622295
C        6.44884432       6.87082108      -1.57693583      -0.30169805       0.00599142      -0.03790922
C        5.16330506       7.08396931       0.55703378      -0.24493948       0.00846517      -0.13991008
C        4.00716421       3.76843357      -2.77510326       0.39914438      -0.93561117       0.07510323
C        3.46538531       3.22835966      -4.11542970      -0.24962929      -0.26162743       0.22012760
C        1.96020868       3.49215409      -4.22471376       0.11760115      -0.13949040      -0.17584586
C        1.35860113       2.75702977      -5.42499438      -0.34067272       0.35781643       0.14002119
C        0.73670236       0.49490663      -4.82659051      -1.05818533       0.56314639      -0.06910339
C        1.18006259      -0.85218008      -4.58573366      -0.16678155      -1.12579391       0.31781635
C        1.33683026      -2.01465626      -4.30522535       0.16527140       1.02073721      -0.26204986
C        1.68272355      -3.37903872      -3.90786542      -0.11503609      -0.52063460       0.06534667
C        2.39898102      -2.58206440      -1.70476195      -0.04160562       0.10879987       0.09293669
C        4.05037526      -2.99665561      -3.35365040      -0.03711094      -0.02537080      -0.02224323
C        0.42613983      -4.07083015      -3.35246363       0.02234410       0.15703535       0.05139604
C        2.14377971      -4.15349850      -5.15279635       0.04079765       0.11905446       0.07193672
C        3.06802146       1.06757996      -5.39013065       0.42720066      -0.05975143       0.15361993
C        3.77437016       1.72903061      -4.20540653      -0.06866064       0.09724360      -0.06728122
C        3.66717781       6.14849589      -3.41784298      -0.29674489       0.27842656      -0.14922252
C        1.44264473       2.40304512       0.80255986      -0.22082429       0.25319836      -0.50514406
C        1.30772637       2.17347392      -0.71318172       0.36581044      -0.39158781       0.04205344
C        0.69309930       0.79524747      -0.98038915       0.24503608       0.23895474      -0.19409107
C       -1.44960064       1.78427292      -1.27031053      -0.03058571       0.34287008      -0.20345506
C       -0.83096543       3.15833340      -1.01844789      -0.26347330      -0.05435849      -0.06576708
C        1.25123774       4.21027319       4.89308871       0.30397833      -0.08303820       0.04542726
C        1.05760986       2.93579571       5.71063286      -0.23858123       0.22912338      -0.05170061
C       -0.29649323       2.31967119       5.36680428       0.33159810      -0.19082565      -0.09982053
C       -2.04788708      -2.21667469       1.04581057       0.03696386      -0.21306660      -0.44343468
C       -2.46746973      -2.95479147      -0.08891614       0.21900261       0.62041480       0.12124345
C       -2.29752071      -2.45478745      -1.37643906      -0.07882179      -0.09334908      -0.15542613
C       -1.71119827      -1.21601284      -1.52394500       0.09379864       0.11135554      -0.16590155
C       -1.27882182      -0.48264101      -0.40869629       0.07236289       0.17731589       0.30642828
C       -1.42750554      -0.98265474       0.86679950      -0.05020294      -0.07473284      -0.16611776
F        4.12151088       3.85699258      -5.18955722       0.04473306       0.06389463      -0.10959190
H       -7.52544589      -5.66733071       2.99434440      -0.00684706       0.01824839       0.05079137
H       -6.78929284      -4.21711410       3.69211420      -0.04307912       0.04403192       0.06601328
H       -7.83645346      -4.07243125       2.27752367      -0.02778615       0.05122014       0.01592595
H       -5.47741035      -3.91120668       1.55771262      -0.06931711      -0.27233960       0.08677644
H       -6.45236809      -3.98480652      -0.51944077      -0.05638768      -0.05505035      -0.02584082
H       -6.95485684      -5.57704011      -1.15478550      -0.06479236       0.11291504      -0.01061244
H       -7.95453569      -4.75304248       0.06499550       0.04591537       0.01324160      -0.05983552
H       -4.70392137      -8.25260791       4.52621380       0.09730964      -0.08234194       0.08416179
H       -2.25164761      -7.73903452       4.52812890       0.03000536      -0.03251192       0.03529121
H       -1.46655247      -5.78871804       3.17550933       0.02317558       0.01504896       0.00430486
H       -4.04601827      -5.89299674      -0.00249024       0.10950547       0.24185227      -0.19217498
H       -3.73111877      -4.89765380      -1.43271737      -0.06784764      -0.06166942       0.17340699
H       -1.28528598      -5.42446334      -1.24276108       0.05370665      -0.04327499      -0.02000546
H       -1.62397495      -6.45453610       0.15358440       0.00801208      -0.01893380       0.01151167
H       -2.25656274      -6.89090741      -1.43812733       0.05294075      -0.09028669      -0.04212203
H       -2.02784225      -3.54365818       4.20807033       0.08725652       0.09318863       0.04665601
H       -1.12271872      -2.12567785       3.65664472       0.02804538      -0.12891021       0.10764917
H       -2.81581821      -2.55515365       6.26412556       0.00262515      -0.06735820       0.06676947
H       -1.75400239      -1.19544978       5.88792479       0.05072969       0.00493389       0.07176474
H       -3.45037859      -0.90987459       6.28580987      -0.04545985       0.05469852       0.08742462
H       -4.84650088      -2.31939139       3.13050758      -0.05634545      -0.04799944      -0.04491441
H       -4.54149773      -3.32478562       4.54786048      -0.03224702      -0.06063052       0.01378211
H       -5.25080726      -1.71790653       4.73807816      -0.07330966       0.02071999       0.05779388
H       -3.91194767       0.31270848       4.12931852       0.13655375      -0.15424154      -0.08411547
H       -3.36938726      -0.37791367       2.58988945       0.03097608       0.03181692       0.21299452
H        0.36256501       1.36588998       3.53737304      -0.12222748       0.10857826       0.05094228
H       -0.89230985       3.99137235       3.23664113       0.24069701      -0.14058007      -0.08332488
H        1.02087239       4.53380527       0.79840843       0.17707318      -0.26471790       0.05646340
H        3.79937223       3.61934180       0.46977101      -0.16448410       0.30838239      -0.21241747
H        5.11531340       4.67869787      -0.78669890      -0.12853445       0.24660593      -0.06950398
H        4.40982361       7.58416924      -1.37511825       0.06773461      -0.11873505       0.02742300
H        6.84730722       7.87928007      -1.51435174       0.08788245       0.04967013      -0.01620708
H        7.12074632       6.20257309      -1.04342668       0.06449027      -0.04448884       0.01481800
H        6.43240907       6.56759337      -2.61982729       0.05380040      -0.00598685      -0.09873561
H        5.63491241       8.04747995       0.72818390       0.05135281       0.04714185       0.05618159
H        4.17830860       7.09557408       1.01879649       0.05847440       0.03936978       0.05106158
H        5.75512269       6.31398300       1.04665084       0.06936612      -0.04057540       0.03482587
H        1.48387067       3.15177872      -3.30383944       0.01832000       0.03745896      -0.13938793
H        1.75972603       4.55667320      -4.31813207       0.03403947      -0.02902138       0.07805291
H        1.78902541       3.13813166      -6.35607505      -0.12408604      -0.05770024       0.10011503
H        0.27476015       2.88585336      -5.43869213       0.26748712      -0.01702674      -0.05557616
H        1.42052074      -2.85194847      -1.31737792       0.03733585       0.06082342       0.01582765
H        3.13871562      -2.78742791      -0.93219149      -0.05680534       0.02770546       0.00915363
H        2.40434853      -1.50021985      -1.91201158      -0.03364713      -0.14199159       0.00891926
H        4.40385058      -3.71036722      -4.09187917       0.05245033       0.08232406      -0.00792725
H        4.07341630      -1.98283781      -3.78253861       0.01211890      -0.05868988      -0.00121801
H        4.73443269      -3.02138131      -2.50728125       0.01568597       0.01769920      -0.06875951
H        0.71847746      -5.01349119      -2.89906337       0.01487491      -0.05875015       0.01200462
H       -0.07792445      -3.45260993      -2.61370465       0.03678734      -0.09099312      -0.03135901
H       -0.27515147      -4.26188768      -4.16044866      -0.03285696       0.02022202       0.00539708
H        2.91647921      -3.61727518      -5.69593083       0.01129827      -0.04331437       0.00536928
H        2.51844821      -5.12666504      -4.84992823       0.03221964      -0.07067297       0.02214382
H        1.29920060      -4.29157750      -5.82232121       0.00887852       0.01417157      -0.00250411
H        3.23071321      -0.01105305      -5.36712908       0.00056786       0.21935285      -0.07792049
H        3.46024603       1.47030806      -6.32912405      -0.06527297      -0.13891632       0.08838032
H        4.85435110       1.59640237      -4.28576176      -0.09145014       0.02677086       0.09416913
H        3.44461626       1.26781031      -3.27262055       0.07626743       0.03070652      -0.17720311
H        3.45327141       5.78343850      -4.41633095       0.12292374       0.02748461       0.17116220
H        2.77085108       6.60542931      -2.98799375       0.14322066       0.00278111      -0.12221417
H        4.44985082       6.90319483      -3.49343127      -0.12813328      -0.07898232      -0.06825965
H        2.21937054       1.73226791       1.17273222      -0.01302354      -0.04918192       0.04438330
H        0.49335013       2.16080399       1.27388083       0.29197854      -0.02703354      -0.01427301
H        2.29827105       2.23439760      -1.17920419      -0.30099605      -0.09248523       0.19573645
H        1.24805068       0.02569468      -0.43720124      -0.06543925       0.11560049      -0.10932150
H        0.74949371       0.57583351      -2.06523391       0.03600797      -0.01148335       0.33795300
H       -1.44684378       1.57359403      -2.35727382       0.00789288       0.04406476       0.30633095
H       -2.48167279       1.77682220      -0.90612585       0.16461511       0.03010982      -0.08687354
H       -0.96102814       3.42410755       0.03853566      -0.00195052      -0.00011646      -0.15789676
H       -1.30172658       3.91805591      -1.64653298       0.02771511      -0.12072881       0.16615225
H        2.24794095       4.62916707       5.02671778      -0.22564313      -0.03385669      -0.00320158
H        0.50188760       4.95804930       5.17312383       0.06405918      -0.03246176       0.00260249
H        1.10602704       3.17383030       6.77199114       0.05884844      -0.04401986       0.01367494
H        1.85575623       2.23093687       5.47480065       0.03364316       0.03119414       0.04304397
H       -1.10132229       2.98959938       5.67964465      -0.00727181      -0.05774493      -0.02864382
H       -0.42647305       1.36221960       5.86968545      -0.06355924       0.05736333       0.01157796
H       -2.62054813      -3.01006760      -2.24389016      -0.00487412      -0.03492559      -0.03198442
H       -1.57055264      -0.80355508      -2.51365468       0.00097487       0.00821546      -0.01034979
H       -1.05956087      -0.40845727       1.70029126      -0.02910315       0.04613129       0.00972805
