151
Properties=species:S:1:pos:R:3:MACE_forces:R:3 energy:=T -221.337828242435=T gnorm:=T 0.004310629176=T xtb:=T 6.7.1=T (edcfbbe)=T MACE_energy=-90873.41809763071 pbc="F F F"
C       -6.97078722      -4.90048298       3.31460406       0.10459504      -0.01981269      -0.35699398
N       -4.94928058      -6.86634074       3.46269926      -0.32439769      -0.05229501       0.00493357
O       -6.33572256      -5.75652144       1.09882360       0.00641291      -0.04042968       0.18909142
C       -5.89209851      -5.01973289       2.23698457      -0.06535460       0.15074998       0.03788129
N       -3.10966867      -4.08612438       0.44854993      -0.28862189       0.03769616       0.08476440
O       -1.97041788       0.48792159       3.71680538       0.19354070      -0.72077230       0.34938426
C       -7.28329449      -5.08155644       0.30114001       0.08764858      -0.00123509       0.10625851
N       -0.24191627       3.45930076       2.83291425      -0.43664082       0.19281601      -0.08678731
O       -0.53634167       1.12698517      -4.61958347       0.73735969      -0.18947724      -0.13155744
C       -4.68627726      -5.75526599       2.78886151       0.20153257       0.31034330      -0.26702380
N        0.89816557       4.14244996       3.26859486      -0.77876938       0.02416791       0.79630473
O        4.36086520       2.78721196      -2.05366051      -0.12293251       0.31551301      -0.34561856
C       -3.95607835      -7.55675724       3.99206087       0.13909967      -0.11694750       0.10548257
N        3.13949405       4.13215454       0.37467574      -0.12252740      -0.59908316       0.49582220
O        2.38065342       5.96024689      -0.70812816       0.29696758      -0.09673576       0.04121834
C       -2.62994260      -7.16049657       3.90939010      -0.01668142       0.04230419      -0.01765377
N        4.32696663       4.96126699      -2.59999417       0.39388921       0.41417996       0.14452990
O        0.84609823       2.97073036      -1.43266464      -0.01074196      -0.09470919       0.14541209
C       -2.34584479      -6.00484682       3.20689531      -0.14750622      -0.09055961      -0.00002747
N        1.54132598       1.53817713      -5.44423821       0.12674618       0.16505092      -0.31059343
O        3.00765713       4.82214087       2.91529030      -0.51230608      -0.33399110      -0.06124118
C       -3.37990360      -5.28297241       2.60837309      -0.00416701      -0.32704518       0.23687466
N        2.74270862      -3.48654672      -4.18570814       0.03382845       0.02083464      -0.07711113
O       -2.79621457       2.35222984       2.78280209       0.47963412      -0.23900828       0.24857183
C       -3.00831674      -4.09839313       1.82392495       0.13752335       0.30287309       0.33618508
N       -0.54985442       0.71994513      -0.52654249      -0.07770148      -0.17599371      -0.01978622
C       -3.52318063      -5.19467112      -0.37590975       0.08968282      -0.48018142      -0.17619041
C       -2.35425908      -6.13425190      -0.66790749      -0.14770358       0.18018636      -0.02056389
C       -2.38383205      -2.95307923       2.26440238      -0.10852411      -0.31828686       0.08391524
C       -2.12683714      -2.51822231       3.67046589      -0.17720027       0.02245631      -0.06661784
C       -3.18835771      -1.55303912       4.25186249       0.16616824       0.24570329       0.06009501
C       -2.86669332      -1.30106313       5.72746327      -0.00439590      -0.00242571      -0.24383511
C       -4.58166383      -2.16747424       4.13075731       0.18116750       0.19389721      -0.10139287
C       -3.20509588      -0.21542494       3.50171279      -0.50868056      -0.10225493      -0.14799235
C       -1.90167421       1.74559102       3.32973464      -0.24547303       0.96692607      -0.60001303
C       -0.57813873       2.36747910       3.74090380      -0.20514016      -0.03665124       0.17710574
C        1.98899239       4.27859099       2.49813775       1.09076853       0.37555780      -0.54052480
C        1.89505394       3.81449171       1.04118892      -0.02043488       0.14326528      -0.11265678
C        3.27728388       5.15943884      -0.46539043      -0.10051524       0.34384185      -0.23781744
C        4.63255841       5.23123671      -1.18633815      -0.11086348      -0.00629339       0.32553844
C        5.34829400       6.55312279      -0.89507661       0.02144409      -0.15780605       0.00151691
C        6.73164250       6.58253937      -1.54362463      -0.27732149       0.01315277      -0.03257039
C        5.48506976       6.70171721       0.62138664      -0.25710556       0.05826817      -0.15899196
C        4.12172797       3.66972447      -2.88291148       0.30479303      -0.96364572       0.00014097
C        3.53577464       3.23291616      -4.24450618      -0.29742388      -0.24760645       0.26791406
C        2.05424332       3.62103998      -4.30761807       0.08230455      -0.10094052      -0.17232471
C        1.34310840       2.96817995      -5.49660144      -0.27702489       0.38681650       0.19087920
C        0.61476824       0.75383975      -4.86391259      -1.08694654       0.45864086       0.02423985
C        1.03067908      -0.58049490      -4.52142715      -0.09972543      -1.04496439       0.52719132
C        1.22609842      -1.67856423      -4.06576962       0.04157234       0.86593732      -0.54496487
C        1.51214519      -3.01035010      -3.53987372      -0.19097276      -0.17571098       0.28949944
C        3.05882146      -4.88269743      -3.96651146      -0.08238465       0.04169977       0.00161730
C        3.90226071      -2.65796495      -3.91830041       0.07171350      -0.01090367      -0.00129737
C        1.59939493      -2.89627798      -2.00256544       0.02469143      -0.03312080      -0.13154623
C        0.31522562      -3.89695349      -3.91520362       0.06550277       0.02365345       0.01786998
C        2.92932855       1.16728316      -5.58272503       0.43601061      -0.07390802       0.17253440
C        3.73333003       1.72164984      -4.40725678      -0.06383256       0.10644081      -0.06806126
C        3.94323677       6.09077188      -3.42169905      -0.27740134       0.24615987      -0.12489031
C        1.56382594       2.33398678       0.83828931      -0.22061805       0.21374042      -0.48344653
C        1.51551738       1.98268111      -0.65997743       0.35310345      -0.40559335       0.09105914
C        0.85644194       0.61348480      -0.86450937       0.26287928       0.33161607      -0.20244375
C       -1.20923868       1.66917637      -1.40592131       0.02395446       0.34473207      -0.24766713
C       -0.55103462       3.02727003      -1.19204171      -0.30492821      -0.03666711      -0.07818929
C        0.85383151       4.68052911       4.62137903       0.29276492      -0.04487787       0.10929662
C        0.56657352       3.55686169       5.61351528      -0.21905779       0.19272751      -0.11781469
C       -0.71693912       2.83903940       5.20241069       0.34441844      -0.16437671      -0.04116365
C       -2.05000390      -2.20726264       1.09719010       0.04692566      -0.24578958      -0.39996106
C       -2.52151106      -2.94431695      -0.01648340       0.24637336       0.58747230       0.10935766
C       -2.35526679      -2.46678420      -1.31283896      -0.06103453      -0.09555704      -0.18938917
C       -1.71225735      -1.25979144      -1.48582118       0.07050409       0.11725631      -0.17285303
C       -1.21443699      -0.53522635      -0.39089586       0.04313514       0.15974206       0.30324493
C       -1.36677885      -1.01082920       0.89385344      -0.04654067      -0.10431807      -0.20359871
F        4.22527205       3.85821192      -5.29775977       0.06838181       0.07978095      -0.14424266
H       -6.54226445      -4.45940459       4.20907601      -0.04376107       0.04043375       0.06639116
H       -7.79030150      -4.27330088       2.97669165      -0.04046662       0.04989132       0.01058389
H       -7.34095467      -5.89332881       3.55166739      -0.00008483       0.01544027       0.03974077
H       -5.58003367      -4.01750664       1.90177119      -0.03801394      -0.25201412       0.08903695
H       -7.45236363      -5.71885247      -0.56417917      -0.05635986       0.12187818       0.00229139
H       -8.22950885      -4.93252302       0.82986870       0.06029329       0.00154089      -0.08126499
H       -6.89476552      -4.10838330      -0.02401247      -0.07016774      -0.06408681      -0.01260256
H       -4.24478664      -8.46061993       4.51099604       0.09824793      -0.04964648       0.05558486
H       -1.84904608      -7.74239482       4.37122848       0.02970838      -0.02923051       0.02826373
H       -1.32924708      -5.65618814       3.09774110       0.01873789       0.01504072      -0.01319857
H       -4.32246165      -5.74077440       0.12935591       0.14159877       0.23063222      -0.19455650
H       -3.91935531      -4.79051555      -1.31012699      -0.06096484      -0.05541188       0.18118800
H       -1.54088708      -5.58601101      -1.13833501       0.05462067      -0.03247831      -0.03020364
H       -1.98892253      -6.57815606       0.25522519       0.01780145      -0.01886134       0.00161212
H       -2.67785436      -6.92894833      -1.33266609       0.03780046      -0.11138028      -0.05946242
H       -2.09135859      -3.39614579       4.31786642       0.08353845       0.08442948       0.04608400
H       -1.15817390      -2.01796326       3.70995051       0.03906143      -0.11137893       0.12355652
H       -1.84804843      -0.94031009       5.83753056       0.04461885       0.01880408       0.07585778
H       -3.54492540      -0.55803141       6.14027932      -0.04084838       0.04907741       0.08772150
H       -2.97598859      -2.22004060       6.29627166       0.00608992      -0.07501318       0.07400034
H       -4.58033639      -3.16837938       4.55340212      -0.03327667      -0.07460900       0.02114547
H       -5.31564402      -1.56533480       4.65944450      -0.07369891       0.03062440       0.06695341
H       -4.87871436      -2.23260849       3.08788629      -0.05692302      -0.05329568      -0.03463450
H       -4.02450640       0.41711717       3.85908943       0.14392851      -0.15078265      -0.04297191
H       -3.33596939      -0.36531531       2.42662432      -0.02034854       0.07110807       0.23479084
H        0.21180584       1.61317326       3.67443820      -0.12034270       0.11770425       0.00290180
H       -1.03780231       4.09356860       2.75340269       0.23218713      -0.11799757       0.02460853
H        1.13122397       4.43639376       0.55935423       0.18689449      -0.24785144       0.11933581
H        3.91994140       3.51748445       0.54891708      -0.12524785       0.24676189      -0.23799759
H        5.26877356       4.40733737      -0.84984632      -0.11554524       0.24293518      -0.03553198
H        4.73339377       7.37888189      -1.25996838       0.06054497      -0.11379821       0.01583787
H        7.15878951       7.57860048      -1.46487079       0.08779110       0.02782313      -0.00942399
H        7.39298553       5.88441695      -1.03464764       0.04618785      -0.04040551       0.00295987
H        6.69292084       6.30185451      -2.59246164       0.05130877       0.01158535      -0.08874132
H        6.05913078       5.87662613       1.03646613       0.06849922      -0.05371461       0.04465024
H        5.99505855       7.63097762       0.85743114       0.05611532       0.05560766       0.05801145
H        4.51057857       6.70971320       1.10495080       0.05625883       0.03368680       0.07268796
H        1.58787823       3.29401633      -3.37562018       0.01966617       0.03685623      -0.14983831
H        1.94554494       4.70126735      -4.37359018       0.04050021      -0.03629031       0.07627931
H        1.74835559       3.34399012      -6.43928297      -0.10381125      -0.04978696       0.06768600
H        0.27259167       3.17252521      -5.44685812       0.24004795      -0.02598469      -0.08414870
H        2.24310097      -5.51197252      -4.30922018       0.04279208      -0.07850589       0.03495956
H        3.94063658      -5.11901474      -4.55996765      -0.02528913      -0.06688949       0.04327327
H        3.28297420      -5.11872862      -2.91540572      -0.00669306      -0.02575104      -0.05188131
H        4.33951905      -2.83452155      -2.92455642      -0.03687253       0.03880318      -0.05201088
H        4.66094806      -2.87944990      -4.66845729       0.03616788       0.05579529       0.06904775
H        3.63265643      -1.60702052      -3.99697308       0.07906760      -0.02625897       0.00309782
H        2.36420082      -2.18041224      -1.71081106      -0.01814449      -0.01573186       0.02158267
H        0.64469578      -2.55994263      -1.60462788       0.04720327      -0.01403566       0.04910681
H        1.83571835      -3.86630227      -1.57339510       0.01387347      -0.05805289       0.05557410
H       -0.60362101      -3.37686253      -3.65620780       0.01689787      -0.06360594       0.02786238
H        0.31731558      -4.09308944      -4.98374992       0.00504909      -0.01755060      -0.02107735
H        0.34573925      -4.83512310      -3.36942084      -0.02695735      -0.06417518       0.01660485
H        3.01704301       0.08121253      -5.62461527       0.02953073       0.21196057      -0.07268408
H        3.30025944       1.59438785      -6.51824178      -0.05344719      -0.14906760       0.05155173
H        4.79620797       1.52197771      -4.54649980      -0.05789941       0.02095577       0.10481260
H        3.41519953       1.24487140      -3.47981446       0.05058924       0.01488021      -0.16009459
H        4.73403806       6.83650050      -3.39848853      -0.06543230      -0.02931271      -0.05213123
H        3.80015775       5.79222701      -4.45217655       0.06302294      -0.00909454       0.09456946
H        3.02636254       6.53065540      -3.02259002       0.12813756       0.03640356      -0.09405841
H        2.32500006       1.71377548       1.31072229       0.01885280      -0.06247471       0.05406598
H        0.59218629       2.11615973       1.27431754       0.27906343      -0.02325051      -0.00242011
H        2.53058604       1.97200223      -1.07195394      -0.27061594      -0.07825164       0.18012735
H        1.32351545      -0.12317364      -0.20971374       0.01343992       0.02341618      -0.07636893
H        0.99804287       0.29694158      -1.91383725       0.03280120      -0.00491186       0.23539172
H       -1.13259785       1.39329923      -2.47001397      -0.03646688       0.06693467       0.26233478
H       -2.26355339       1.72718899      -1.12904952       0.07742231       0.03155955      -0.03578678
H       -0.74963949       3.36965557      -0.16969079       0.00758718      -0.00603027      -0.11130463
H       -0.93383625       3.76089194      -1.90317205      -0.02912839      -0.08718116       0.13870310
H        1.81547336       5.15502676       4.81391163      -0.21910943      -0.05042904      -0.03095152
H        0.06192567       5.43611056       4.66365097       0.06580139      -0.03489768       0.02202926
H        0.46473253       3.97220091       6.61484879       0.05411026      -0.03531425       0.02575516
H        1.40020139       2.85348551       5.61095002       0.02407673       0.03860553       0.04837573
H       -1.56705930       3.52208294       5.27510447       0.00580757      -0.07052778      -0.02223213
H       -0.90509621       1.98080117       5.84590112      -0.06246365       0.02652076      -0.00407110
H       -2.71598532      -3.01754363      -2.16835504      -0.02014705      -0.02189001      -0.02134124
H       -1.57295573      -0.86592060      -2.48318022      -0.00739227       0.00270820       0.00406999
H       -0.95311973      -0.44912212       1.71517216      -0.04486198       0.06057986       0.01201815
