151
Properties=species:S:1:pos:R:3:MACE_forces:R:3 energy:=T -221.336821651236=T gnorm:=T 0.009249609868=T xtb:=T 6.7.1=T (edcfbbe)=T MACE_energy=-90873.4086711051 pbc="F F F"
C       -7.28579760      -4.85368766       2.97993331       0.13919694      -0.04383836      -0.35194981
N       -5.26462461      -6.63384035       3.73091662      -0.32576263      -0.05667875      -0.03036299
O       -6.20407916      -5.80089645       0.98553009      -0.04158624      -0.02524297       0.15631553
C       -6.01609803      -4.98324031       2.13787288      -0.08465422       0.18258095       0.06733891
N       -3.03399860      -4.20445393       0.66195544      -0.28417526       0.06654265       0.00124364
O       -2.18748113       0.56621517       3.77877969       0.09782123      -0.72472370       0.38258843
C       -7.00409125      -5.21975593      -0.02159775       0.08888463      -0.02660063       0.14048617
N       -0.07762122       3.33309395       3.02452015      -0.41168109       0.32855229      -0.04740942
O       -0.45144909       1.03912539      -4.78200517       0.86363068      -0.11250664      -0.15201013
C       -4.90713467      -5.62339223       2.95141673       0.22391989       0.27346549      -0.26748275
N        1.17052656       3.80164512       3.44776037      -0.62394817      -0.06036707       0.87008897
O        4.30160979       2.88694565      -2.10469039      -0.16538440       0.32402427      -0.39421533
C       -4.35746894      -7.22250526       4.48922838       0.10530680      -0.11890799       0.15075438
N        3.09590085       4.02130874       0.35963828      -0.23716101      -0.57375903       0.49799188
O        2.24468001       5.92476152      -0.50304622       0.24342402      -0.04804527       0.03151890
C       -3.03161249      -6.82156133       4.53559224      -0.01181369       0.04231885      -0.04110784
N        4.14301989       5.07906412      -2.55839905       0.34711466       0.36154426       0.11696632
O        0.83274340       2.84697316      -1.41898422       0.02700763      -0.08898340       0.16213399
C       -2.64768703      -5.77408377       3.71945846      -0.12014966      -0.09473302      -0.03195341
N        1.59266648       1.62187711      -5.60592409       0.07078779       0.15973639      -0.24750973
O        3.28215937       4.38415230       2.94762308      -0.55304309      -0.35824407      -0.00644541
C       -3.58709231      -5.15943117       2.89096373      -0.01910089      -0.28945459       0.25011155
N        3.37605364      -3.01669407      -3.98746662       0.04170384       0.05966515      -0.01745711
O       -2.68503230       2.51907344       2.80200955       0.42313067      -0.28651886       0.32125055
C       -3.12534239      -4.06519393       2.02788744       0.06938483       0.36257157       0.38032798
N       -0.50318006       0.56844403      -0.51197942      -0.12062860      -0.28371831      -0.03109431
C       -3.24287602      -5.42655886      -0.07323875       0.13810035      -0.52883416      -0.11098104
C       -1.97325078      -6.27711647      -0.09833354      -0.16875526       0.16720730      -0.06362097
C       -2.61587114      -2.84795113       2.42343549      -0.11026357      -0.40890250       0.12478264
C       -2.56367154      -2.31818502       3.82052031      -0.12993741       0.05996600      -0.06406690
C       -3.67210816      -1.30320261       4.19328014       0.15838095       0.20985685       0.04948299
C       -3.60899166      -1.04352437       5.70094342       0.04000346      -0.01739094      -0.23297404
C       -5.05084630      -1.84736944       3.82268032       0.24338569       0.17941646      -0.09478836
C       -3.47357522       0.02165306       3.44905119      -0.48709404      -0.12819932      -0.21168906
C       -1.91441369       1.79407012       3.39165439      -0.11528310       1.08708025      -0.61957923
C       -0.51342169       2.19524820       3.82331943      -0.20540721      -0.04500713       0.15754578
C        2.18794599       3.95735080       2.58851763       0.97033369       0.45617348      -0.66769806
C        1.91992096       3.64173341       1.11049904       0.00179109       0.19913953      -0.10934353
C        3.16906867       5.12903119      -0.37796006      -0.04749573       0.33857834      -0.21587454
C        4.48771345       5.30335470      -1.14696547      -0.07844005      -0.01093690       0.35029702
C        5.14532042       6.64701221      -0.81712004       0.01905449      -0.15832825      -0.02004804
C        6.47198695       6.81499438      -1.55569641      -0.33257909      -0.03407783      -0.01197067
C        5.38651971       6.70061745       0.69299556      -0.26590851       0.04221505      -0.14136608
C        3.99933632       3.78857908      -2.89204509       0.42699063      -0.87928757       0.06595924
C        3.44158313       3.38200097      -4.27037461      -0.31218892      -0.32131061       0.17923389
C        1.93683983       3.66842309      -4.33675897       0.08412553      -0.10596439      -0.14349356
C        1.30145916       3.03589405      -5.57825746      -0.34477053       0.39636428       0.17831058
C        0.71244180       0.74848511      -5.07733975      -1.14296762       0.39308686       0.02448861
C        1.20310317      -0.59129059      -4.88431353      -0.02763749      -1.11451814       0.53368856
C        1.49566781      -1.71131984      -4.55028203      -0.07710229       0.96364256      -0.44775043
C        1.92451695      -3.06449417      -4.21220198      -0.17793276      -0.30725739      -0.01337809
C        4.01355967      -4.30218627      -3.79096239      -0.04607574       0.01592900      -0.04196076
C        3.78370377      -2.08803141      -2.95195011       0.05020989       0.05844091       0.12591426
C        1.09571486      -3.53819995      -3.00049738       0.18795144       0.08337534      -0.03655299
C        1.60169989      -3.94420392      -5.43333286       0.05014247       0.00282717       0.12113638
C        3.00747288       1.35123985      -5.72964434       0.40749187      -0.06930143       0.16431658
C        3.74265232       1.89665061      -4.50629165      -0.05058847       0.14498928      -0.03268074
C        3.62212438       6.20864691      -3.30154505      -0.31162606       0.20905447      -0.11317584
C        1.57610876       2.17375939       0.84259662      -0.13230294       0.24517759      -0.45724904
C        1.52582906       1.86061773      -0.66390168       0.35321313      -0.34935477       0.04468605
C        0.89297333       0.48077316      -0.88754404       0.26866412       0.28616402      -0.16161075
C       -1.18979370       1.49060667      -1.39790232       0.00788823       0.35811666      -0.27508138
C       -0.56719987       2.86693268      -1.18635873      -0.29558924      -0.02734198      -0.08753432
C        1.30421966       4.14393393       4.85765715       0.28751892      -0.08250691       0.06221374
C        0.90957274       2.94619983       5.71709584      -0.18837243       0.22942252      -0.06191747
C       -0.49751939       2.49158802       5.33468750       0.26662748      -0.27072667      -0.07383087
C       -2.14987362      -2.20977253       1.23648990       0.06855212      -0.25619215      -0.40742480
C       -2.43106414      -3.08654541       0.15750958       0.16523708       0.60727896       0.11307171
C       -2.10879934      -2.74930085      -1.15321161      -0.03864628      -0.15822161      -0.20229267
C       -1.48580797      -1.54282637      -1.38249129       0.09208474       0.11500063      -0.12237831
C       -1.16043845      -0.68668518      -0.32008982       0.07213896       0.25677349       0.28182947
C       -1.48039671      -1.01445648       0.98024794      -0.03018557      -0.08051203      -0.19471711
F        4.09161432       4.10534114      -5.28629191       0.06267401       0.07589200      -0.12413313
H       -7.67316385      -5.84768277       3.18826113       0.00736447       0.06242365       0.05714314
H       -7.05053416      -4.35913188       3.91807680      -0.06603685       0.01605501       0.03929480
H       -8.03792564      -4.26835141       2.45721632      -0.02152088       0.02919670       0.00863759
H       -5.68305999      -3.98629866       1.80675680      -0.04538463      -0.25363310       0.08200395
H       -6.92608336      -5.88180440      -0.88104805      -0.07798448       0.10803285      -0.02473441
H       -8.05111176      -5.14515049       0.28400918       0.04545568       0.01333034      -0.05251426
H       -6.63371805      -4.22294960      -0.28699844      -0.03751308      -0.05090171      -0.02766466
H       -4.72166782      -8.04338859       5.09171509       0.09750291      -0.05088590       0.07257950
H       -2.32586927      -7.31524284       5.18361113       0.02277576      -0.03171035       0.02974476
H       -1.62410173      -5.42742235       3.70406193      -0.00097560       0.01708155      -0.00541268
H       -4.06118417      -5.98490426       0.38697460       0.17875871       0.23075570      -0.20719465
H       -3.53777044      -5.16419408      -1.09202673      -0.08089392      -0.04299311       0.18446448
H       -1.15246183      -5.71437293      -0.53803739       0.05294256      -0.03808661      -0.01096690
H       -1.69509390      -6.56720620       0.91238918       0.01168664      -0.01741515       0.00937927
H       -2.14217517      -7.17496865      -0.68433854       0.05261978      -0.11386763      -0.04418401
H       -2.64777218      -3.15946779       4.51083991       0.08193396       0.11018110       0.04065493
H       -1.59941716      -1.83286143       3.98301472      -0.01143455      -0.13476135       0.11548963
H       -2.63704315      -0.64196293       5.97421597       0.03677704      -0.00315071       0.09136199
H       -4.37517511      -0.33042547       5.99455395      -0.04896614       0.07208438       0.06646022
H       -3.77272261      -1.96700822       6.24985355      -0.00801026      -0.05889424       0.06344646
H       -5.20255926      -2.81877471       4.28545417      -0.03923401      -0.06997142       0.01739497
H       -5.83251870      -1.17263799       4.16007911      -0.09793247       0.03246665       0.06757382
H       -5.13754290      -1.95837488       2.74471321      -0.04127089      -0.05594081      -0.02116034
H       -4.24226905       0.74850547       3.72661836       0.10771316      -0.14649942      -0.02577002
H       -3.51841573      -0.12699945       2.36649398      -0.00957086       0.06939121       0.19195987
H        0.16228482       1.35832375       3.62206447      -0.07284999       0.11434675       0.00585126
H       -0.77759948       4.07660131       3.08999894       0.25727262      -0.23094885      -0.08942126
H        1.10775206       4.29108040       0.76421850       0.21535875      -0.25448773       0.08053623
H        3.89935426       3.42495491       0.45647045       0.00927169       0.20340973      -0.22174542
H        5.17863263       4.50029900      -0.87272135      -0.13494775       0.24971366      -0.03300455
H        4.45458556       7.45370190      -1.07535775       0.08228483      -0.11865097       0.00730471
H        6.88594837       7.79555975      -1.34368810       0.11184624       0.07518670      -0.01671198
H        7.18012864       6.06100923      -1.22014242       0.07037646      -0.04205556       0.00838590
H        6.35521678       6.71175146      -2.63059159       0.05321889       0.00543857      -0.08652089
H        5.82967739       7.65474504       0.96346387       0.04914379       0.04723919       0.05635099
H        4.45473428       6.58462381       1.24212687       0.05425006       0.03180309       0.07673216
H        6.06008958       5.90530116       1.00322235       0.07091252      -0.05440479       0.03048893
H        1.47978499       3.26009552      -3.43130271       0.04167075       0.04947778      -0.17216033
H        1.75371737       4.74011046      -4.35166095       0.03956066      -0.03113970       0.08711920
H        1.70737498       3.49209791      -6.48600295      -0.11610497      -0.07644734       0.09716297
H        0.21746806       3.16813524      -5.55295464       0.28424176      -0.01421753      -0.06055651
H        3.77267847      -4.97280892      -4.61049608       0.04375235      -0.05840104       0.04478411
H        5.09085767      -4.14062931      -3.79090276      -0.02542308      -0.08638016       0.01962591
H        3.74198001      -4.78122907      -2.83853607       0.01666684      -0.01025445      -0.05406158
H        3.59659369      -2.46358600      -1.93345840       0.00411018       0.04962944      -0.09222247
H        4.85338589      -1.90450499      -3.05560495      -0.04477497       0.00598564       0.07475878
H        3.26131788      -1.14114738      -3.07388400       0.07943553      -0.03666867       0.05121158
H        1.19496354      -2.84992138      -2.16345395      -0.03581149      -0.04960173      -0.01204195
H        0.04642865      -3.58325338      -3.27783640      -0.04556811      -0.01236933       0.06514341
H        1.41921477      -4.52852496      -2.69045529      -0.01069427      -0.05795858       0.01961541
H        1.62102150      -4.99570595      -5.16436853       0.03063915      -0.08320332      -0.01951166
H        0.60834670      -3.70356183      -5.80004210      -0.03144016      -0.05149600       0.01166654
H        2.32073376      -3.75317469      -6.22409835       0.02266034       0.00063010      -0.03399888
H        3.17245588       0.27676968      -5.81512241      -0.00290791       0.21910634      -0.06131129
H        3.36991532       1.84658975      -6.63485307      -0.05543826      -0.14619445       0.06655607
H        4.82012160       1.77285738      -4.62226199      -0.08056933       0.01042172       0.09535579
H        3.43299019       1.35275851      -3.61248728       0.06327660       0.04230381      -0.17159789
H        3.54015694       5.97215848      -4.35484550       0.05628297       0.00545934       0.08631934
H        2.64753577       6.49285962      -2.89627050       0.14329604       0.08134893      -0.09299031
H        4.30374254       7.04897171      -3.19883664      -0.08039589      -0.05353276      -0.06305572
H        2.33690760       1.53384586       1.28862252       0.01342780      -0.08999449       0.06640459
H        0.60884909       1.94491972       1.27922221       0.17873900      -0.01807509       0.04876172
H        2.53860812       1.88278747      -1.08067701      -0.24700530      -0.09088241       0.17049180
H        1.38872721      -0.26169611      -0.26017132      -0.00217798       0.04308837      -0.07178682
H        1.01852765       0.19224123      -1.94863015       0.02255934      -0.00557989       0.20275406
H       -1.09906995       1.20457421      -2.46181710      -0.03704924       0.08112659       0.26219828
H       -2.24735601       1.52231208      -1.13010995       0.08688865       0.02716203      -0.02103616
H       -0.77915763       3.20645558      -0.16566921       0.00021651      -0.00416117      -0.11193342
H       -0.96522160       3.58950463      -1.90085048      -0.02205819      -0.08467522       0.14231811
H        2.34149052       4.43524092       5.02170382      -0.23153895      -0.00669961      -0.02576657
H        0.65272717       4.99776427       5.07422887       0.05890442      -0.04295466       0.00024857
H        0.95262307       3.22209786       6.76992708       0.02717938      -0.03928941      -0.00575916
H        1.61512460       2.13185737       5.54389081       0.02785792       0.03984817       0.05643128
H       -1.22260677       3.27784946       5.56102122      -0.00593051      -0.06658739      -0.04286367
H       -0.77704072       1.59295075       5.88398963      -0.05371706       0.07013017      -0.00509781
H       -2.34005091      -3.41077962      -1.97483098      -0.00351798      -0.01759650      -0.02553702
H       -1.23654408      -1.24230022      -2.39120656       0.00494413      -0.03645046      -0.00088194
H       -1.19309112      -0.34131726       1.77029583      -0.03676146       0.03053997       0.01309637
