151
 energy: -221.337266897409 gnorm: 0.004265822527 xtb: 6.7.1 (edcfbbe)
C           -7.29550071083636       -4.22404736058121        2.84017308082264
N           -5.68267048583849       -6.42445565833282        3.53973290512460
O           -6.41201398798304       -5.33272052147082        0.83698777160813
C           -6.06714730951638       -4.59569436982541        2.00959092014904
N           -3.08925579509684       -4.24589802886850        0.61907157115804
O           -1.79750912635094        0.26535399456007        3.88922893103145
C           -6.95004799771529       -4.54733691025403       -0.20339376729385
N            0.15795521683946        3.15049373580088        3.24954903711951
O           -0.62910619702699        0.40549189546400       -4.38473133783493
C           -5.12252195662683       -5.46816126510634        2.81465409500707
N            1.43908782988982        3.61313150419850        3.57395390434339
O            4.01894007177469        2.94878277758248       -2.36084930677356
C           -4.91810283957033       -7.21169848196370        4.27509751768842
N            3.02522516532412        4.08903961936788        0.31406877669317
O            2.06074121441914        6.03278645323219       -0.30863702701866
C           -3.53984759662060       -7.08089146187462        4.34554686067457
N            3.53451121630086        5.10966357601501       -2.72483371482775
O            0.57399246895259        2.96730117156361       -1.22582856284033
C           -2.94499650080289       -6.08668969558008        3.58976531308139
N            1.13745042110787        1.31445478313477       -5.48853930433252
O            3.49426855464061        4.23958118348127        2.92064305772102
C           -3.73530260184878       -5.26109876094923        2.79263866026267
N            3.76399334387966       -2.84792730511013       -3.45987598086084
O           -2.49911385278012        2.35992155095517        3.49488155919442
C           -3.10357705286652       -4.20265679333590        1.99697874229165
N           -0.54871744834753        0.56509480625933       -0.33146899509233
C           -3.42201329056664       -5.39600556638953       -0.18477943614161
C           -2.21990088107208       -6.32660501993530       -0.33705436291291
C           -2.47422086645262       -3.06500078805282        2.44854902921957
C           -2.22215929857412       -2.65311466433354        3.86422986084179
C           -3.20806659150811       -1.62660076391619        4.46964773318584
C           -2.85517333516441       -1.42911133937722        5.94626655394436
C           -4.64567660203366       -2.12872799680005        4.34784058161912
C           -3.11872635210200       -0.27687235536999        3.74590471498812
C           -1.62115117383651        1.56203180269914        3.73980684102457
C           -0.16930986900931        1.93634203199240        3.99054339546043
C            2.36965811551262        3.84522262520173        2.63485318205787
C            1.95518652606793        3.63396430109600        1.17414732618539
C            2.97273666126537        5.21902158202965       -0.39438543959100
C            4.11874150301881        5.38534051600089       -1.40541600772753
C            4.81856771086862        6.74057299734542       -1.26011872609410
C            5.89351636565555        6.92080384482794       -2.33026342793823
C            5.45333347049860        6.79586037462427        0.13045085416084
C            3.50911405793327        3.81845192233197       -3.07533181712648
C            2.84688427081029        3.35979964887216       -4.39475523632684
C            1.32025493724426        3.42518963357909       -4.28070704036786
C            0.61859675774780        2.65947529190515       -5.40795588684399
C            0.51335384088205        0.30890081053587       -4.84272582947546
C            1.25380941655161       -0.91687426138603       -4.70841121173491
C            1.72364905058819       -1.99240147043368       -4.43050348536912
C            2.45538463418453       -3.19711452144887       -4.03890431557855
C            3.68206052681764       -1.98934373575749       -2.29325557792799
C            4.71297042228142       -2.30643461656075       -4.41567614416036
C            1.61065178791680       -3.95435088666112       -2.99965706731531
C            2.64299054872333       -4.10185019522182       -5.26644453656818
C            2.53918338193118        1.28794018867031       -5.83211070484190
C            3.34816602558099        1.94718998022823       -4.71696116135208
C            2.74665793207250        6.15963311354086       -3.33451071154106
C            1.62690449777167        2.17244403680082        0.85671117492737
C            1.39253680329733        1.95826079850839       -0.64904495423590
C            0.78513858766271        0.57030648245776       -0.89045754542061
C           -1.38130372642926        1.53307933403528       -1.02676739558925
C           -0.77578757854432        2.91403122469015       -0.79133287654531
C            1.71138998722043        3.84986843505736        4.98542256348672
C            1.44879261463597        2.57219155680164        5.77784695191184
C            0.02162569592962        2.09970616604570        5.51118521572794
C           -2.04394560340050       -2.36525266928446        1.28321461879927
C           -2.43811975748536       -3.13623426304291        0.16151317663427
C           -2.16781761372418       -2.71335123866997       -1.13656807035123
C           -1.53689194833646       -1.50047748907938       -1.30917009431979
C           -1.15002007641035       -0.72602426942853       -0.20563837388973
C           -1.36992303023579       -1.16428053722872        1.08179753102096
F            3.26089801573190        4.19553515675412       -5.44796045969035
H           -7.86395957829917       -5.12444294401784        3.05109857813063
H           -6.97989369983878       -3.77366298533501        3.77546447891100
H           -7.92088422838608       -3.51476731013972        2.30462328020106
H           -5.53171852469494       -3.68355841381311        1.70075224279924
H           -7.88104289213884       -4.05958657816634        0.09491043571807
H           -6.23255863962970       -3.78437994094239       -0.52516868501609
H           -7.15087496415354       -5.23331522318953       -1.02216151447090
H           -5.44157046479263       -7.97304927686723        4.83666897153422
H           -2.95334524358815       -7.73635720830076        4.96817175086852
H           -1.87375769570751       -5.94782439723075        3.60040440441627
H           -4.25464004837034       -5.92692135677470        0.28133038886701
H           -3.74653470143592       -5.04187150938202       -1.16568348290659
H           -2.47535186637171       -7.15573403066324       -0.98946440712798
H           -1.37851856235471       -5.78625332017994       -0.76505667158777
H           -1.92414262959307       -6.72167890930517        0.63145294236315
H           -2.25087737779392       -3.54112657968214        4.49749710554673
H           -1.22062499755176       -2.22305807465826        3.91784145747281
H           -3.00685022267255       -2.35348991297824        6.49616344910167
H           -1.81607018814797       -1.12840772673074        6.05085394349118
H           -3.48443386038214       -0.65934555024646        6.38707717756342
H           -4.94903772642778       -2.15967582328840        3.30563088323582
H           -4.72536861650320       -3.13079270570143        4.76138550413292
H           -5.32682814634230       -1.47428864711805        4.88580762359721
H           -3.83509143630569        0.43876599738114        4.16126707988143
H           -3.32595179011557       -0.39504575145313        2.67874016737458
H            0.47542206727183        1.12926443366004        3.63039186740512
H           -0.54188249918462        3.86407802856334        3.45771242519924
H            1.09418789191175        4.27858704998680        0.96546237864451
H            3.81053485215035        3.46561959954701        0.20133066438458
H            4.86225145976739        4.59952852643877       -1.24013640501560
H            4.07352473006550        7.53890782867441       -1.32112077126263
H            6.38285294784217        7.88217773985674       -2.20344037037942
H            6.64239187963054        6.13772164491411       -2.23697865570823
H            5.47917151444359        6.87317916745529       -3.33319345465495
H            5.89824891161919        7.77314326159990        0.29757667407889
H            4.70893267058447        6.61844622819617        0.90446997213045
H            6.23095514840583        6.04146120000555        0.22605281576669
H            1.03633286484089        3.00586221108027       -3.31385591159756
H            0.99034178786955        4.46137580549166       -4.30440543735364
H            0.78814835886444        3.15402017113656       -6.36772515482943
H           -0.45259326337361        2.60637206325198       -5.20636909632126
H            3.29584700567749       -0.98260176482666       -2.52010350256114
H            3.04837316523800       -2.44074132427166       -1.53582825576392
H            4.68312125194090       -1.88406774757975       -1.87799842973564
H            4.96875357819222       -3.05823269640073       -5.15677644372401
H            4.34245663079998       -1.40431398812862       -4.92467031252031
H            5.62193944829801       -2.04217522612991       -3.87886476768001
H            2.22610151182917       -4.71279371090006       -2.52556883790151
H            1.21080535484634       -3.28483297290105       -2.24155707964369
H            0.76893585252746       -4.43231089580285       -3.49292242465759
H            1.68274604961292       -4.51120475917469       -5.56720670683006
H            3.05140693727205       -3.55278389621899       -6.10987737920381
H            3.31108410705698       -4.91744935389654       -5.00550809001331
H            2.86330419831207        0.25556485587110       -5.97153307508460
H            2.67139399610098        1.83576818108332       -6.76860088286217
H            4.40137700374826        2.00833843189590       -4.99286574588183
H            3.27056074730748        1.35242052724146       -3.80535245029328
H            3.26525966415206        7.10643283497241       -3.22066738344438
H            2.60758712956447        5.97630941998148       -4.39382818267058
H            1.78045572784349        6.23867595203872       -2.82950465574186
H            2.45653440703686        1.53542482771065        1.16326203606167
H            0.72667468070506        1.87889139988481        1.39077941688799
H            2.34071761312828        2.04381513381869       -1.19041391031866
H            1.38766594296100       -0.18755561849933       -0.38684412584656
H            0.78397120200054        0.35344906357394       -1.97467918262832
H           -1.43724495305187        1.32963190482559       -2.11074323689368
H           -2.38764920292077        1.49773188106177       -0.60630149739233
H           -0.84456375934043        3.16251346174026        0.27383930283447
H           -1.29752333960299        3.67529715575064       -1.37397447985073
H            2.75028668509638        4.16924687492181        5.06409567456603
H            1.05811774639398        4.65599267371004        5.33603885067308
H            1.59233519323073        2.76578257149735        6.83957144898281
H            2.15544333965107        1.80246186592756        5.46539637385304
H           -0.69324012398201        2.83703321929487        5.88398901840890
H           -0.17109445580452        1.14871243088717        6.00591419116330
H           -2.45273736326370       -3.30266589566013       -1.99485957581724
H           -1.33792561302847       -1.13437123868456       -2.30731759931299
H           -1.02545117545180       -0.56222600628240        1.90463514099797
