151
Properties=species:S:1:pos:R:3:MACE_forces:R:3 energy:=T -221.336885733592=T gnorm:=T 0.005639683334=T xtb:=T 6.7.1=T (edcfbbe)=T MACE_energy=-90873.40327649443 pbc="F F F"
C       -7.00109283      -4.84768779       2.52770464       0.17463505      -0.11413850      -0.34447279
N       -5.05591259      -6.74970063       3.32947158      -0.31468196      -0.03041291      -0.03099568
O       -5.94441539      -6.01125855       0.63267450      -0.03568856      -0.01704931       0.17900443
C       -5.73385202      -5.10148969       1.71157634      -0.09219385       0.17999352       0.01579393
N       -2.83469051      -4.15476916       0.39814792      -0.30098575      -0.02744357       0.05979882
O       -2.07331895       0.41646211       3.78525088       0.20313916      -0.66112517       0.31817804
C       -6.72700460      -5.50488568      -0.42558494       0.12697844      -0.01052712       0.14595956
N       -0.27337764       3.39960812       3.07466142      -0.43253091       0.21358245      -0.06126211
O       -0.41812989       1.15058782      -4.74266782       0.73158941      -0.18780550       0.04932675
C       -4.66026221      -5.73349391       2.57655493       0.24708424       0.24615330      -0.25097348
N        0.90361467       4.01109622       3.52270095      -0.79451564      -0.06252932       0.84801620
O        4.30625469       2.92486308      -1.78556962      -0.03177249       0.31244195      -0.42142294
C       -4.18057033      -7.36213590       4.10564132       0.15486438      -0.11898876       0.13699035
N        3.06552549       4.24214397       0.57774557      -0.08719469      -0.61828681       0.44769088
O        2.35742221       6.12832453      -0.44406699       0.28937815      -0.09234407       0.02416823
C       -2.84707997      -6.99061617       4.18505201      -0.03323997       0.03624688      -0.02628186
N        4.33243018       5.09721432      -2.33621711       0.37116461       0.34289874       0.15367285
O        0.58295554       3.23105037      -1.25382941      -0.02361348      -0.07543052       0.12803002
C       -2.42464106      -5.93164262       3.40364490      -0.14188842      -0.09900954      -0.05704415
N        1.71318557       1.65667578      -5.35104083       0.18136409       0.18310761      -0.21185924
O        2.99621887       4.72175737       3.15206490      -0.48557434      -0.30629714      -0.06871188
C       -3.33388349      -5.27970836       2.56979442      -0.03674179      -0.31759676       0.23489758
N        2.64257305      -3.33706086      -3.42958450       0.03809582       0.05328054      -0.06770831
O       -2.85649254       2.37200559       3.01420614       0.51370963      -0.29161777       0.22231662
C       -2.86093927      -4.14062240       1.77702022       0.10333299       0.33926303       0.36241879
N       -0.57365116       0.81890036      -0.43647681      -0.16036622      -0.19669551      -0.13360865
C       -3.03574050      -5.31340771      -0.43695152       0.17808098      -0.42690561      -0.16543668
C       -1.71779112      -6.04134471      -0.69762228      -0.18419640       0.13442664      -0.02379740
C       -2.35403088      -2.95169309       2.25270240      -0.04998696      -0.37855239       0.07648371
C       -2.20627313      -2.52114471       3.67703182      -0.19509060       0.02541583      -0.06417020
C       -3.33502673      -1.61425395       4.22143513       0.15316126       0.24092013       0.04897114
C       -3.12410406      -1.42496148       5.72618957       0.00836913       0.00917231      -0.24176108
C       -4.69880698      -2.25678640       3.97280784       0.19973947       0.19986642      -0.04885059
C       -3.32438155      -0.24177474       3.53568727      -0.54689369      -0.14060944      -0.15593726
C       -1.96832906       1.69631160       3.48646755      -0.27257814       1.01415994      -0.53789075
C       -0.60558928       2.23436409       3.88987958      -0.18022913      -0.05231513       0.18482402
C        1.95932599       4.22508344       2.72194189       1.07527179       0.42350941      -0.54760290
C        1.82035269       3.89959608       1.23097237       0.00528600       0.15035292      -0.10073041
C        3.23157730       5.29844754      -0.21992105      -0.08498364       0.35840566      -0.22457521
C        4.60371841       5.36041774      -0.91433246      -0.13428876      -0.02001553       0.34141616
C        5.33524148       6.66845422      -0.60197609       0.02146182      -0.15170224       0.01507583
C        6.74746210       6.65481245      -1.18465228      -0.30086604       0.05214216      -0.05072004
C        5.40669183       6.82809035       0.91774812      -0.24486970       0.05639993      -0.15049770
C        4.12318771       3.80903570      -2.62902637       0.29250945      -0.95082895       0.09719804
C        3.59800472       3.37139851      -4.01121604      -0.31598500      -0.24594085       0.23015695
C        2.10978661       3.72464230      -4.12529972       0.12183610      -0.10993487      -0.16064528
C        1.47674901       3.08063628      -5.36112603      -0.31703322       0.39527204       0.18374897
C        0.74874174       0.80730597      -4.95208998      -1.12203229       0.48100730      -0.18915570
C        1.14175878      -0.57283086      -4.83800317      -0.01590512      -1.14656789       0.39524394
C        1.34969942      -1.74166194      -4.63589760      -0.05907976       0.96538702      -0.20693522
C        1.61829912      -3.16587575      -4.47247176       0.02773504      -0.28750316      -0.20660463
C        2.91463209      -4.71777201      -3.08131110      -0.00999800       0.07770133      -0.00393777
C        2.41660895      -2.55315738      -2.23352390      -0.08804102       0.12852768       0.19417927
C        0.27818979      -3.86392493      -4.16810730       0.09898025       0.07142470       0.09501221
C        2.17369462      -3.64835607      -5.82486425      -0.03848080      -0.04630968       0.06911019
C        3.11591585       1.32030989      -5.41881069       0.39477984      -0.07100611       0.18257874
C        3.83396200       1.86745112      -4.18531793      -0.05292671       0.11810028      -0.07751265
C        3.99752079       6.23379577      -3.16711260      -0.27060957       0.26536134      -0.15923725
C        1.46890498       2.44496443       0.91110976      -0.24860628       0.24632663      -0.46210847
C        1.36492001       2.23217513      -0.60895906       0.38611522      -0.37768004      -0.01267947
C        0.79111751       0.84571842      -0.91553337       0.28453626       0.30255499      -0.14309397
C       -1.37790751       1.78331294      -1.16805429       0.01305319       0.33832920      -0.18445981
C       -0.79307202       3.17014352      -0.90890444      -0.26088492      -0.05890262      -0.09827538
C        0.92978959       4.41324186       4.92276816       0.31536574      -0.05877256       0.09920861
C        0.66380892       3.20103039       5.81048696      -0.23118498       0.21325157      -0.09206301
C       -0.65746459       2.55773201       5.39684094       0.33472657      -0.17651125      -0.07271722
C       -1.97512844      -2.19545570       1.10636026       0.04120297      -0.25022986      -0.43753405
C       -2.28815065      -2.97895374      -0.03237361       0.17857001       0.64191307       0.17087750
C       -2.04321652      -2.51016148      -1.31933413      -0.03901731      -0.12970875      -0.21662599
C       -1.47946597      -1.26033654      -1.46262082       0.08561865       0.08818762      -0.16510002
C       -1.14873869      -0.48525145      -0.34192196       0.07015064       0.18695764       0.35382359
C       -1.37936103      -0.94938270       0.93489514      -0.03110261      -0.07261276      -0.21387633
F        4.30416773       4.02293636      -5.03703373       0.06778084       0.06790999      -0.12366543
H       -6.76554625      -4.20398350       3.36901381      -0.04379491       0.05316606       0.06641777
H       -7.75783530      -4.36156220       1.91869968      -0.03613684       0.05969458       0.01319964
H       -7.38071744      -5.79538088       2.89645492      -0.01985942       0.01490208       0.03480212
H       -5.36055607      -4.14905471       1.29987482      -0.05269791      -0.25728032       0.11284616
H       -7.76624134      -5.35420601      -0.12708872       0.00163281       0.01899472      -0.04952725
H       -6.31566243      -4.55925316      -0.79594736      -0.04878237      -0.01992600      -0.02868548
H       -6.68469876      -6.25586366      -1.21049927      -0.06661999       0.09561792      -0.05109625
H       -4.57227851      -8.18336530       4.68983829       0.07696009      -0.05344208       0.06976474
H       -2.16583912      -7.51528267       4.83479984       0.03007955      -0.02566308       0.03244587
H       -1.39406086      -5.60846740       3.41864908       0.01742416       0.03608841       0.00043497
H       -3.74242149      -5.98629287       0.05195925       0.08850212       0.25386320      -0.17786589
H       -3.47255578      -4.98241167      -1.38268697      -0.06285093      -0.07858094       0.17750534
H       -1.00971939      -5.37786510      -1.18848662       0.06816533      -0.01987217      -0.02192026
H       -1.28407537      -6.38026337       0.24024351       0.01854427      -0.01997085       0.01812740
H       -1.89318022      -6.90347347      -1.33353958       0.05012867      -0.10236631      -0.05774607
H       -2.16885053      -3.40763699       4.31150602       0.07817698       0.10066279       0.04784067
H       -1.26359460      -1.98181872       3.77975234       0.03344076      -0.12472000       0.11885557
H       -2.14806916      -0.98917788       5.91987901       0.04999856       0.01001865       0.07759011
H       -3.88644970      -0.76714509       6.13603739      -0.05201042       0.05741008       0.08000245
H       -3.18612767      -2.38188884       6.23699640       0.00051156      -0.06872554       0.06482740
H       -4.88822156      -2.34969416       2.90707458      -0.05513826      -0.04515509      -0.05073385
H       -4.72404743      -3.24905390       4.41614148      -0.03460435      -0.06386393       0.01086873
H       -5.49109817      -1.65741374       4.41396391      -0.08436087       0.02133899       0.05491070
H       -4.13112210       0.39108670       3.91974152       0.14213159      -0.15164499      -0.06252161
H       -3.45460027      -0.34196788       2.45421742       0.01401477       0.05341434       0.20043000
H        0.15161710       1.46512103       3.71015886      -0.10975145       0.12022956       0.01687137
H       -1.05272457       4.05921362       3.09865270       0.24226011      -0.13267731      -0.02065537
H        1.06042776       4.57126482       0.81358339       0.17029308      -0.25291351       0.09658413
H        3.83321404       3.60051843       0.71157755      -0.14544348       0.27464700      -0.20797560
H        5.22064113       4.52740361      -0.56385432      -0.10683157       0.25607164      -0.05009853
H        4.76211142       7.50773856      -1.00232594       0.04717575      -0.11921091       0.02537827
H        7.33769331       5.87841408      -0.70375428       0.06001368      -0.05251263       0.01995320
H        6.74374474       6.46123797      -2.25327495       0.05906371      -0.01046951      -0.09600653
H        7.23014112       7.61184353      -1.00728826       0.08789841       0.03557475      -0.01428871
H        5.91807573       7.75262159       1.16970446       0.05571960       0.04642480       0.05302396
H        4.41100031       6.85491606       1.35522817       0.06069851       0.03502228       0.07165654
H        5.94786158       5.99856532       1.36681433       0.06348953      -0.05397868       0.04340233
H        1.60425097       3.37471832      -3.22319749       0.01479131       0.03745840      -0.11666963
H        1.97981665       4.80372003      -4.17857805       0.03039666      -0.04012479       0.09419955
H        1.91616564       3.49934270      -6.27135728      -0.10476552      -0.06147013       0.08424095
H        0.39919122       3.25191400      -5.36074320       0.24629784      -0.02284820      -0.05890893
H        3.84352953      -4.74144703      -2.51260727      -0.04268919      -0.09230381      -0.00312945
H        2.12381876      -5.16925578      -2.46459300       0.03197211      -0.01951496      -0.06088297
H        3.05148168      -5.31309755      -3.97800706       0.01771949      -0.08959068       0.02465079
H        3.28623202      -2.66083291      -1.58681769      -0.04194004       0.01514202       0.02867922
H        2.30924861      -1.50193853      -2.49393934       0.01472787      -0.08295507       0.11361396
H        1.52428644      -2.86106867      -1.66480642       0.09291612       0.03966533      -0.04233569
H       -0.45540527      -3.59186560      -4.92271229      -0.03578163      -0.03716970       0.00858641
H        0.40318397      -4.94347686      -4.17337532      -0.00403438      -0.04420541       0.01615318
H       -0.09631751      -3.54788916      -3.19650862      -0.03222351      -0.04845835      -0.01873641
H        3.15206319      -3.20793002      -5.99423924       0.00037765       0.00840657       0.00220210
H        2.26185137      -4.73019986      -5.84761190      -0.00037503      -0.06446015      -0.01076022
H        1.50280720      -3.34224860      -6.62352758       0.00136635      -0.05706137      -0.02906177
H        3.23302743       0.23762101      -5.46835966       0.00593804       0.22972550      -0.07019235
H        3.53292771       1.77324494      -6.32280218      -0.05137105      -0.14293219       0.05309560
H        4.90631210       1.68759059      -4.26269195      -0.04980312       0.02078187       0.09580429
H        3.46908398       1.36588595      -3.28846715       0.06258465       0.03873023      -0.14783945
H        3.82518777       5.93287035      -4.19218534       0.06711582      -0.01384421       0.09656726
H        3.10610597       6.72078489      -2.76638304       0.11132781       0.02754188      -0.06799026
H        4.82411209       6.93966356      -3.16188730      -0.06253754       0.00112646      -0.05215589
H        2.24781620       1.78522257       1.29208229       0.02496003      -0.06400680       0.05860485
H        0.51712549       2.18402454       1.36606334       0.28494171      -0.01177514      -0.00715228
H        2.35738717       2.33087951      -1.05928818      -0.28130133      -0.10757684       0.17990648
H        1.36898325       0.07710804      -0.40000568      -0.01818502       0.05025459      -0.06016328
H        0.85224412       0.66145061      -2.00575099       0.02834186      -0.00653748       0.23804425
H       -1.38695133       1.58393496      -2.25478888      -0.00117086       0.04668335       0.21225216
H       -2.40125530       1.74341301      -0.78922036       0.08275499       0.03921620      -0.06707297
H       -0.93290363       3.42977559       0.14680556      -0.00997036      -0.00714229      -0.10573728
H       -1.27958735       3.91978874      -1.53458126      -0.01240170      -0.09553189       0.13168791
H        1.90922542       4.84938168       5.11697173      -0.23367880      -0.04448706      -0.02811463
H        0.15747845       5.17453968       5.07733598       0.06123623      -0.03865736       0.01084974
H        0.62338219       3.51413948       6.85248523       0.05217812      -0.03865188       0.02041672
H        1.47714493       2.48381280       5.69325973       0.02776993       0.03533594       0.04870392
H       -1.48431524       3.24700866       5.58593614       0.00467569      -0.06167247      -0.03299692
H       -0.83499802       1.64140206       5.95808788      -0.06680882       0.03387698       0.00006811
H       -2.29496337      -3.09706597      -2.19019227      -0.00041851      -0.02918807      -0.01557077
H       -1.28258650      -0.86905748      -2.45163917      -0.01733164      -0.00324115      -0.00416069
H       -1.08753902      -0.33882517       1.77219101      -0.01885153       0.03125035       0.01105343
