151
Properties=species:S:1:pos:R:3:MACE_forces:R:3 energy:=T -221.336987473825=T gnorm:=T 0.004545237617=T xtb:=T 6.7.1=T (edcfbbe)=T MACE_energy=-90873.5206928145 pbc="F F F"
C       -7.10806677      -4.93971122       2.94993987       0.21021150      -0.12860925      -0.33864617
N       -5.05196587      -6.72584990       3.70118198      -0.31371138      -0.01661239      -0.03769284
O       -6.06183561      -6.01712780       1.00622890       0.00696620      -0.05402955       0.25562945
C       -5.85349984      -5.11608499       2.09474575      -0.13005256       0.16886154       0.00718042
N       -3.00907754      -4.14298407       0.63199046      -0.32846245      -0.04422212       0.19561090
O       -2.05736237       0.49932568       3.94768463       0.05845418      -0.58818786       0.28311311
C       -6.78330188      -5.47635227      -0.07659110       0.04693944       0.08060781       0.09441986
N        0.06110299       3.25141161       3.09871229      -0.33986616       0.27872003       0.00666504
O       -0.66717314       0.73324283      -4.40365738       0.80199342      -0.07372506      -0.27743123
C       -4.72572473      -5.70691440       2.91870897       0.23066114       0.23859603      -0.21251066
N        1.33217804       3.69336554       3.48098393      -0.65279050      -0.04615507       0.88733661
O        4.00174744       2.70031076      -2.45769224      -0.13549150       0.34405750      -0.29759980
C       -4.12271938      -7.29892975       4.44377422       0.13119795      -0.11930110       0.11780489
N        3.15833371       3.94328504       0.31778678      -0.08004814      -0.63431676       0.38403076
O        2.40223388       5.91657055      -0.47137052       0.28499087      -0.15683187       0.01518511
C       -2.80163094      -6.87791768       4.46384830      -0.01730908       0.05269945      -0.05398833
N        3.92664951       4.92214585      -2.75663677       0.33875886       0.26838124       0.13659863
O        0.56021094       3.09614331      -1.29385011      -0.03791600      -0.05791137       0.09125154
C       -2.45184467      -5.81450780       3.65323268      -0.14492847      -0.09020371      -0.02714444
N        1.08271243       1.54591043      -5.61288316       0.03707980       0.11075730      -0.28254475
O        3.45185023       4.20085236       2.93728420      -0.45440239      -0.25890396       0.02902207
C       -3.41773454      -5.20955238       2.84794368      -0.03728792      -0.26125282       0.21591808
N        2.55079959      -3.10399451      -2.80398109       0.15943328      -0.13972959      -0.10529647
O       -2.57429945       2.45673341       2.97965831       0.39079300      -0.35815708       0.27161455
C       -3.01345743      -4.07678347       2.00889422       0.07880461       0.34833144       0.30105868
N       -0.72224168       0.77394830      -0.41920165      -0.29477443      -0.28777568      -0.07601824
C       -3.16276215      -5.34744798      -0.14630318       0.19469157      -0.48456206      -0.14315031
C       -1.82085996      -6.05643415      -0.32377625      -0.18262656       0.12675208      -0.04203636
C       -2.53516004      -2.85706788       2.43212848      -0.06428779      -0.37971225       0.07119342
C       -2.38639184      -2.38379594       3.84179547      -0.12843196       0.01726855      -0.02352891
C       -3.48706329      -1.41938711       4.34657905       0.14325839       0.22964256       0.05291786
C       -3.33394208      -1.26117285       5.86176788       0.04489314       0.00757892      -0.22109814
C       -4.87192902      -1.97903724       4.02573563       0.21246900       0.17471374      -0.04445184
C       -3.36284444      -0.03913529       3.68740221      -0.55059797      -0.12953236      -0.16664888
C       -1.78651571       1.72170262       3.53270839      -0.09318324       0.99614141      -0.56529950
C       -0.35861273       2.10204190       3.89398017      -0.19239050      -0.03975450       0.11102083
C        2.33062896       3.84473708       2.59388017       1.01680343       0.28312899      -0.72398215
C        1.99584616       3.61786548       1.11572638      -0.02574830       0.19244382      -0.11828562
C        3.24500783       5.02658158      -0.45676431      -0.10927942       0.39245224      -0.17425756
C        4.46260949       5.04189156      -1.39351747       0.01774242      -0.07110586       0.26783181
C        5.36581750       6.25312948      -1.14503507      -0.03379917      -0.14834342      -0.02629163
C        6.57299860       6.22743953      -2.08085019      -0.27255995       0.06530591       0.01238763
C        5.83463957       6.20305469       0.31007008      -0.25384614       0.13737183      -0.11112663
C        3.69584673       3.66899229      -3.16123163       0.29482793      -0.93281666      -0.03350541
C        3.01227877       3.36994718      -4.51369327      -0.09570666      -0.28943865       0.14572849
C        1.50134270       3.58784463      -4.35622615       0.02130238      -0.11392421      -0.05620003
C        0.68204078       2.92593218      -5.47114009      -0.28607479       0.34534555       0.26170323
C        0.44332162       0.57944151      -4.92060506      -1.24258142       0.38581544       0.18178469
C        1.15206197      -0.66720538      -4.81555573       0.34554744      -1.07720766       0.40691923
C        1.73400822      -1.69811901      -4.59127896      -0.50546889       0.98526647      -0.21738646
C        2.52834543      -2.87954329      -4.26063191       0.24678870      -0.53227529       0.02597832
C        1.23517789      -3.24493023      -2.20538715      -0.13332688       0.08846288       0.03564580
C        3.31994226      -2.11963643      -2.06300083       0.04297384       0.09856808      -0.02742225
C        1.95007231      -4.11236574      -4.97329812      -0.03386287       0.09144374       0.06027270
C        3.95535055      -2.65278682      -4.78885185      -0.07733352       0.06613411       0.07279692
C        2.45755598       1.42232841      -6.04087396       0.49437822      -0.02774760       0.04140636
C        3.37464738       1.94143664      -4.93689574      -0.12310871       0.01280307       0.09405973
C        3.40539042       6.13283329      -3.35463328      -0.37722962       0.37264771      -0.18462848
C        1.54545041       2.19398584       0.78302889      -0.27751190       0.30970599      -0.28874420
C        1.30732383       2.02723418      -0.72836970       0.39370329      -0.45340211      -0.00740255
C        0.60315470       0.69351954      -0.99415898       0.34784103       0.29042074      -0.28688819
C       -1.49475691       1.79482915      -1.10474643       0.07879673       0.31426095      -0.17493456
C       -0.79280875       3.12940806      -0.86289983      -0.22478560      -0.00465583      -0.00080229
C        1.52087702       4.01239263       4.89103641       0.21711568      -0.12428418       0.02146323
C        1.14429281       2.80852575       5.74988073      -0.14793824       0.24054640      -0.07350930
C       -0.27841022       2.37139565       5.40852138       0.34420902      -0.21853771      -0.08334235
C       -2.18912012      -2.13738431       1.25214187       0.03848254      -0.31642143      -0.44087354
C       -2.50028219      -2.97047513       0.14815689       0.18868234       0.71269324       0.04025834
C       -2.27950740      -2.54919282      -1.15938258      -0.02930838      -0.08947475      -0.15103311
C       -1.72861580      -1.30156978      -1.35822544       0.04427585       0.13469049      -0.17267990
C       -1.36772554      -0.49209046      -0.27199266       0.06798721       0.16317826       0.29012717
C       -1.58899914      -0.90300476       1.02386271      -0.02240001      -0.03017823      -0.15975450
F        3.49680952       4.22307796      -5.51961074      -0.01357853       0.12167738      -0.12290634
H       -6.89558697      -4.26148631       3.77013368      -0.01886507       0.04992277       0.08564622
H       -7.92026957      -4.52711896       2.35832530      -0.04322282       0.05925981      -0.00976908
H       -7.40205146      -5.90558291       3.34806481      -0.04549482       0.03603240       0.02615800
H       -5.53462761      -4.14261518       1.68983064      -0.05766884      -0.25107223       0.09453922
H       -6.83797678      -6.26792964      -0.82083496      -0.05287853       0.13397502      -0.05099797
H       -7.79644246      -5.18041708       0.21160254       0.06882443      -0.02950151      -0.05745251
H       -6.26310743      -4.60599794      -0.49743858      -0.07358380      -0.07722227       0.00064676
H       -4.46118084      -8.12696900       5.05101596       0.09456006      -0.04943493       0.08003052
H       -2.07396917      -7.36795816       5.08987899       0.03146068      -0.03922265       0.04290052
H       -1.43531469      -5.44968543       3.62300238       0.01038955       0.01486741      -0.00572243
H       -3.87287621      -6.00766348       0.35515302       0.10152725       0.23403350      -0.22261720
H       -3.57250664      -5.07455914      -1.12157120      -0.05958886      -0.06081450       0.16423879
H       -1.94894176      -6.94452006      -0.93486545       0.04718082      -0.09417224      -0.05129661
H       -1.10609248      -5.39333237      -0.80676908       0.05276415      -0.02537375      -0.01232469
H       -1.42189538      -6.35223858       0.64353742       0.02038426      -0.02447230       0.02346454
H       -2.39064785      -3.25325919       4.50088186       0.07960278       0.10892333       0.04814293
H       -1.42487560      -1.87798850       3.94389632       0.00429109      -0.14359018       0.12721176
H       -2.34538288      -0.88049767       6.10309673       0.04645768       0.00894741       0.08743754
H       -4.07704923      -0.56826942       6.24861888      -0.04614350       0.06105593       0.06827432
H       -3.46894641      -2.21963099       6.35537555       0.00485294      -0.06356159       0.04680965
H       -4.96912407      -2.97741621       4.44556315      -0.05276341      -0.04110744       0.00089893
H       -5.64947401      -1.34614620       4.44580604      -0.08410113       0.01080819       0.03934742
H       -5.02030531      -2.04189711       2.95074231      -0.06491174      -0.03899582      -0.02288515
H       -4.11164017       0.65181941       4.08771415       0.12126928      -0.13598643      -0.05467085
H       -3.50302965      -0.10393218       2.60440597       0.04224229       0.03643588       0.22463992
H        0.29886964       1.26262747       3.64455017      -0.10866754       0.13353216       0.04697485
H       -0.62716979       3.99977165       3.19101541       0.21764649      -0.17569988      -0.04466648
H        1.21803252       4.33722970       0.83461169       0.17613892      -0.24262728       0.04187955
H        3.89052538       3.24975712       0.29069357      -0.08830776       0.30735128      -0.16651799
H        5.05298798       4.13596540      -1.22656296      -0.12918042       0.28554961      -0.01240799
H        4.78826105       7.16977850      -1.28703656       0.04520876      -0.10381691       0.00140828
H        7.18847614       5.35651602      -1.86656012       0.06996763      -0.06153768       0.00168318
H        6.27400188       6.17804336      -3.12428823       0.03565624       0.00608076      -0.07305273
H        7.17517674       7.11959900      -1.93445427       0.08142004       0.03149071      -0.01670147
H        4.98904018       6.23435771       0.99404546       0.06856233       0.01210548       0.06433633
H        6.38960053       5.28742671       0.49991628       0.06404615      -0.05997528       0.02128594
H        6.48206442       7.04882072       0.52155014       0.05636870       0.02954833       0.07024372
H        1.20025133       3.17878316      -3.38935207      -0.03234396       0.04605905      -0.15195303
H        1.28699430       4.65574335      -4.34118590       0.05613016      -0.03516645       0.09861706
H        0.84782657       3.43497846      -6.42370284      -0.07164977      -0.08200576       0.06903114
H       -0.37810954       2.95919753      -5.21636948       0.20069391       0.00938908      -0.11239214
H        1.36055075      -3.64050328      -1.19783635      -0.07328865       0.03013989      -0.02281175
H        0.68950804      -2.29248114      -2.13579032       0.07181850      -0.14806360      -0.05222769
H        0.62982276      -3.94625057      -2.77020935      -0.03737280       0.00156197       0.07361474
H        3.21858971      -2.34235856      -1.00231808       0.03010405       0.03529066      -0.01914986
H        4.37311997      -2.18975114      -2.32121209      -0.00207575       0.09056413       0.05982899
H        2.97540073      -1.08623406      -2.22894632       0.03466158      -0.11944495       0.00991839
H        2.07342149      -4.00320994      -6.04721427      -0.00928868       0.00051466      -0.03021074
H        2.48742278      -4.99392676      -4.63715919       0.03569055      -0.04880842       0.01686079
H        0.89060469      -4.24065926      -4.77270181       0.01564231       0.00399898      -0.00639997
H        4.60796952      -3.42985080      -4.40273751       0.03770411      -0.06883737       0.02075811
H        3.95112138      -2.70182542      -5.87402456      -0.00967378       0.01750015      -0.01576092
H        4.33757336      -1.67845181      -4.49648596       0.02432159      -0.03228533       0.02017623
H        2.68563525       0.37935796      -6.25954366      -0.01318823       0.26755026      -0.05803170
H        2.58301574       2.01864153      -6.94781611      -0.06529973      -0.15687515       0.02264391
H        4.41355910       1.93458150      -5.26743960      -0.01489763      -0.00896059       0.11598400
H        3.28987542       1.30123074      -4.05726244       0.04811936       0.08488283      -0.19735226
H        3.04277307       5.95587117      -4.35937113       0.12437243      -0.03021307       0.13084117
H        2.59464011       6.51631647      -2.72976808       0.15076251       0.03379996      -0.12115332
H        4.19496577       6.87879739      -3.40678054      -0.07169854      -0.00244164      -0.04255503
H        2.31473127       1.48360528       1.08505036       0.01095975      -0.08173482       0.06215204
H        0.61806490       1.97004134       1.30378369       0.30552920      -0.04790857       0.01509486
H        2.26191814       2.05562207      -1.26492399      -0.34589167      -0.09141433       0.19423764
H        1.15213004      -0.11897520      -0.51551187      -0.02117365       0.07273805      -0.05209118
H        0.57395364       0.50702448      -2.08349987       0.03609610       0.00103842       0.26842590
H       -1.56831602       1.60004883      -2.18904682      -0.01392760       0.06284315       0.21455159
H       -2.49750034       1.82751138      -0.67610485       0.07086130       0.02089344      -0.04320124
H       -0.84675710       3.37169118       0.20527042      -0.02051944       0.01718051      -0.11732770
H       -1.25714123       3.93034314      -1.44023775      -0.00151955      -0.10636089       0.12546933
H        2.56652267       4.29046300       5.02017070      -0.23499111      -0.00619735      -0.01496543
H        0.88598126       4.86996862       5.14006264       0.04855468      -0.04281758       0.02093784
H        1.21760961       3.07601874       6.80290621       0.04008188      -0.04193389       0.00877236
H        1.83825120       1.99117887       5.54933211       0.01151337       0.04822125       0.05595694
H       -0.98595859       3.16181110       5.67002916      -0.02885508      -0.05458606      -0.02557358
H       -0.54900786       1.46840590       5.95353765      -0.06099555       0.04940866      -0.00718373
H       -2.52356207      -3.17476080      -2.00445539      -0.00900162      -0.03444502      -0.03574118
H       -1.55447596      -0.94095153      -2.36347011       0.04922825       0.00806549       0.00384771
H       -1.26694295      -0.26596559       1.82948702       0.01031657       0.02895225      -0.02364556
