151
Properties=species:S:1:pos:R:3:MACE_forces:R:3 energy:=T -221.336899757477=T gnorm:=T 0.009551859434=T xtb:=T 6.7.1=T (edcfbbe)=T MACE_energy=-90873.51685280642 pbc="F F F"
C       -7.23502878      -4.76458614       2.45254298       0.24377941      -0.14456998      -0.29825441
N       -5.39855401      -6.64707828       3.50367218      -0.27768442      -0.02739825      -0.07133987
O       -6.06532594      -6.04896831       0.71551730      -0.04136810      -0.00640831       0.24234465
C       -5.91295194      -5.07688062       1.75133627      -0.08798221       0.13708185      -0.01734858
N       -2.83490838      -4.29757491       0.65957160      -0.32258623       0.00302058       0.15625522
O       -2.09609666       0.50037421       3.76419975       0.02869431      -0.53174036       0.34494823
C       -6.66854570      -5.56727897      -0.46482652       0.07386084       0.02207079       0.12445001
N        0.12333865       3.20249729       3.04070123      -0.34150281       0.29933920      -0.01271738
O       -0.60065785       1.05504648      -4.43764130       0.87038207      -0.07771355      -0.20061764
C       -4.92804263      -5.66862306       2.74295050       0.26688241       0.20916393      -0.21847040
N        1.36660371       3.65570931       3.49551034      -0.75719825      -0.09738680       0.85728041
O        4.31493606       3.06172671      -2.12914952      -0.09377266       0.28060496      -0.37354182
C       -4.60732905      -7.21476666       4.39571140       0.04305396      -0.10767624       0.20074678
N        3.26742990       4.05780237       0.40038489      -0.09623684      -0.58326280       0.36364806
O        2.40852717       6.06468325      -0.17796254       0.33827653      -0.20353001      -0.01530425
C       -3.29596897      -6.81784902       4.60714842       0.05210390       0.06062607      -0.07291963
N        4.08725728       5.26370868      -2.48770728       0.35371223       0.35019015       0.08113011
O        0.70032799       2.97881851      -1.19474585       0.00232614      -0.11800046       0.10085699
C       -2.79417161      -5.80186470       3.81523332      -0.17146757      -0.10146903      -0.04923359
N        1.34740332       1.79386279      -5.34720876       0.15088149       0.21378598      -0.24502797
O        3.47154579       4.29998045       3.03883336      -0.64102915      -0.33811383      -0.05098480
C       -3.60709402      -5.21304578       2.84505734      -0.07678909      -0.25347908       0.22617774
N        3.03303450      -3.10782944      -3.64768130      -0.00441390       0.13488380      -0.01258834
O       -2.49739037       2.46975520       2.77120970       0.33219146      -0.31354399       0.26394546
C       -3.03271161      -4.14833831       2.01632373       0.06006652       0.36094915       0.28996758
N       -0.34136123       0.53584301      -0.32324896      -0.23904295      -0.34806160      -0.06238840
C       -2.99887483      -5.52391116      -0.08104641       0.16013397      -0.53083042      -0.09391145
C       -1.73030825      -6.37422756      -0.03391492      -0.10823978       0.07203369      -0.05052868
C       -2.54592925      -2.93229042       2.44077570      -0.10177263      -0.33849615       0.08436559
C       -2.56823975      -2.37324144       3.82753609      -0.09197023      -0.00710670      -0.06056438
C       -3.66864319      -1.32309571       4.11223916       0.13464002       0.20121662       0.10139875
C       -3.71368980      -1.06315817       5.62129210       0.07280612      -0.01498178      -0.22936377
C       -5.02794049      -1.84009010       3.64268867       0.23169772       0.16634796      -0.04178063
C       -3.38830732      -0.00137397       3.38814610      -0.56290484      -0.07895120      -0.23396908
C       -1.76610421       1.71817051       3.37627655      -0.01985923       0.89015451      -0.56363788
C       -0.35521877       2.06938673       3.82410175      -0.16848516      -0.04660971       0.10253135
C        2.38576579       3.87589942       2.65080410       1.28753434       0.35907611      -0.62133281
C        2.12294823       3.61492328       1.16482633      -0.04644500       0.23749812      -0.07914262
C        3.31143431       5.23415841      -0.22727202      -0.15037440       0.47028184      -0.14503916
C        4.55626712       5.44620520      -1.10553330      -0.03353510      -0.10700339       0.40183328
C        5.23834995       6.78009106      -0.79394960      -0.02740960      -0.14072629      -0.07011642
C        6.50520902       6.96151372      -1.62756156      -0.30386331       0.05180149      -0.03404079
C        5.59538259       6.79130726       0.69311582      -0.27476545       0.02424941      -0.07981150
C        3.94146652       3.98569729      -2.85816405       0.33482032      -0.89221930      -0.02352108
C        3.26211754       3.60893658      -4.19247243      -0.11512943      -0.28074637       0.16255936
C        1.75096741       3.83489815      -4.08033729       0.04906057      -0.07892450      -0.09262117
C        0.98547880       3.18709174      -5.23891001      -0.30654681       0.35898180       0.22549269
C        0.55252668       0.84282070      -4.82838414      -1.36323310       0.27378073       0.21264053
C        1.10221554      -0.48717457      -4.76496495       0.09499432      -1.12480062       0.33245914
C        1.40718515      -1.63664435      -4.57312702      -0.06074829       1.01675546      -0.22778834
C        1.79993567      -3.03695205      -4.44642272       0.00554296      -0.33213703      -0.24745506
C        3.52122728      -4.45250617      -3.41929243       0.01459008       0.02117040      -0.01826580
C        2.97375435      -2.37413528      -2.40074124      -0.04056737       0.11380093       0.12888727
C        0.60816128      -3.81198521      -3.85009632       0.13246304       0.04682347       0.10211820
C        2.07822139      -3.52898772      -5.87951108      -0.06888292      -0.02056012       0.08108940
C        2.74434981       1.60286857      -5.65729093       0.48164033      -0.07336149       0.05616534
C        3.60132576       2.15038604      -4.51749984      -0.11274839       0.06798889       0.02839545
C        3.50149213       6.41654043      -3.13928602      -0.32816542       0.30190807      -0.16213542
C        1.81627164       2.15297020       0.83831338      -0.24963937       0.27772724      -0.29929065
C        1.55522607       1.97172008      -0.66697975       0.37025028      -0.28316602      -0.06452750
C        0.96272658       0.58563954      -0.94659327       0.21361717       0.31801827      -0.23852416
C       -1.22549822       1.50490519      -0.95041484      -0.02657238       0.39104746      -0.23085171
C       -0.63614259       2.89312065      -0.72248423      -0.24174444      -0.04715706      -0.00227767
C        1.46530581       3.99375721       4.90854871       0.24360683      -0.11764550       0.07468473
C        1.04588701       2.79406570       5.75352718      -0.14947199       0.26014525      -0.07833685
C       -0.35559825       2.35055098       5.33899292       0.33021127      -0.23923071      -0.08042629
C       -1.99684793      -2.30301167       1.28722670       0.06645980      -0.32521079      -0.40297302
C       -2.19246119      -3.18413237       0.19458471       0.22313245       0.68109918       0.02555203
C       -1.76568621      -2.84765772      -1.08675993      -0.00939970      -0.05377091      -0.04681267
C       -1.15244601      -1.62615508      -1.27214428       0.10354921       0.12969845      -0.12776029
C       -0.93392049      -0.75832135      -0.19282791       0.11463720       0.18430017       0.33612658
C       -1.33112118      -1.09941417       1.08133323       0.00552442      -0.04531425      -0.19667521
F        3.76826729       4.39782394      -5.24076114       0.00436670       0.09165363      -0.10442710
H       -7.05879827      -4.06583502       3.26448099      -0.03181791       0.04839715       0.06272098
H       -7.94712793      -4.32361637       1.76188769      -0.04341216       0.06634186      -0.03377796
H       -7.63960871      -5.68784773       2.85305593      -0.06586830       0.02497500       0.04084897
H       -5.48727991      -4.15837338       1.31692020      -0.08480072      -0.23382009       0.11161745
H       -6.05951011      -4.77899606      -0.92348255      -0.06508203      -0.03904886       0.00097267
H       -6.72954659      -6.42156473      -1.13549188      -0.02043613       0.12496577      -0.06747559
H       -7.67470201      -5.18331601      -0.28284995       0.02701487      -0.00601752      -0.03998848
H       -5.05607372      -8.01186659       4.97513963       0.09397842      -0.00776504       0.05391716
H       -2.68653596      -7.29154333       5.35998247       0.00956987      -0.04730399       0.03128808
H       -1.77342493      -5.46478296       3.92229125       0.01403157       0.01073197       0.00404779
H       -3.83500779      -6.08715340       0.33772890       0.14572665       0.22464583      -0.21729130
H       -3.23903872      -5.26780935      -1.11587917      -0.07907472      -0.04703200       0.16492622
H       -0.88688751      -5.81508325      -0.43865543       0.00720818      -0.07178806       0.02828152
H       -1.50270292      -6.65804893       0.99502494      -0.01012003       0.01858025      -0.10179169
H       -1.87238449      -7.27926764      -0.62318302       0.06976220      -0.00164423       0.02796585
H       -2.71515019      -3.19462050       4.53019511       0.07188512       0.10312379       0.05695719
H       -1.60015253      -1.91286334       4.03343147      -0.03488633      -0.12263263       0.13965535
H       -2.74801441      -0.71221252       5.97489938       0.03532895       0.00919780       0.08418008
H       -4.46252493      -0.30932815       5.85174525      -0.05005562       0.06448534       0.06572503
H       -3.97057324      -1.97586542       6.15274285       0.00434185      -0.04605570       0.04462755
H       -5.03569866      -1.97443447       2.56366427      -0.06248152      -0.04036664      -0.01737893
H       -5.23419308      -2.79943484       4.11060949      -0.05997315      -0.04287804      -0.00192199
H       -5.81772158      -1.14212020       3.90959634      -0.08247316       0.00686363       0.02724030
H       -4.14196730       0.74990854       3.64410044       0.11611894      -0.16292691      -0.01957747
H       -3.40164625      -0.13898384       2.30270534       0.02084119       0.05676273       0.21966066
H        0.29953280       1.21501330       3.61980480      -0.11296467       0.14521481       0.04517162
H       -0.57035437       3.95144703       3.06577909       0.21205735      -0.18768993      -0.02027868
H        1.28622889       4.25335171       0.85966039       0.18924913      -0.22878853       0.05491835
H        4.05019074       3.42603955       0.32693381      -0.14772272       0.28008200      -0.15211541
H        5.27164115       4.63956375      -0.91885931      -0.16492504       0.24767057      -0.02188002
H        4.53375843       7.59470392      -0.97849207       0.07436954      -0.10426075       0.00701047
H        7.24351371       6.21536326      -1.34603606       0.09432504      -0.07427289       0.00287394
H        6.31093521       6.86035564      -2.69208667       0.04508224      -0.00510622      -0.06601805
H        6.92614983       7.94675034      -1.44723253       0.08324663       0.04168493      -0.01147715
H        6.06459835       7.73376128       0.95801907       0.06045092       0.04252309       0.05879538
H        4.70632872       6.66391375       1.30786052       0.07620826       0.04429892       0.05824665
H        6.28367678       5.98202675       0.92673045       0.06750255      -0.02915429       0.01706438
H        1.41142245       3.40969973      -3.13381083      -0.01309566       0.05537814      -0.15255048
H        1.53055431       4.90120716      -4.06268962       0.06012847      -0.05773810       0.07061934
H        1.22784163       3.68560183      -6.18120990      -0.06818467      -0.07565311       0.05961877
H       -0.08804888       3.25190102      -5.05390377       0.22867468      -0.00302168      -0.10437871
H        4.52190268      -4.37733457      -2.99293194      -0.05818521      -0.07478766      -0.02820459
H        2.89625131      -5.02585460      -2.71849424       0.02501975      -0.01514176      -0.05883747
H        3.59328507      -4.99111309      -4.35917489       0.02057597      -0.08842178       0.03902983
H        2.29513686      -2.82419439      -1.65876668       0.05649838       0.07599778      -0.03196413
H        3.97480099      -2.34456576      -1.97214970      -0.05570092       0.00219743       0.02242054
H        2.65104621      -1.35223555      -2.58965010       0.08602966      -0.10714754       0.15181777
H       -0.28173182      -3.62347376      -4.44486200      -0.03436798      -0.02563168      -0.00688019
H        0.81406916      -4.87910616      -3.85472954      -0.00959551      -0.05810948       0.00201206
H        0.41572644      -3.48968661      -2.82843574      -0.01982482      -0.03721793      -0.06562081
H        3.02952678      -3.13107535      -6.22204593      -0.00072405       0.01158683      -0.00465934
H        2.10198489      -4.61391383      -5.91929920       0.04177284      -0.06628027      -0.01149404
H        1.28947325      -3.17963375      -6.54131323       0.00089942      -0.06608009      -0.00028910
H        2.94871700       0.54154174      -5.80089989      -0.01153440       0.25776798      -0.06107218
H        2.96353320       2.14446007      -6.58198296      -0.06199717      -0.16661959       0.03291718
H        4.65944052       2.08752053      -4.77288619      -0.04672405      -0.00624644       0.10860722
H        3.43448005       1.56064448      -3.61519547       0.05153673       0.08046443      -0.16073511
H        4.21638633       7.23571841      -3.13613601      -0.07095014      -0.03459472      -0.02167444
H        3.25238734       6.19837226      -4.16962506       0.07172408      -0.01439922       0.11024535
H        2.60703460       6.72739874      -2.59248208       0.12104629       0.04312956      -0.09999381
H        2.65986701       1.52493791       1.12099942       0.03140716      -0.08694627       0.06907327
H        0.93003730       1.83462943       1.38056104       0.26744778      -0.00747647       0.02704502
H        2.49142790       2.09706352      -1.22214743      -0.30419836      -0.12440617       0.18196852
H        1.59661612      -0.18859236      -0.51551371       0.01339868       0.02115384      -0.03074586
H        0.91026084       0.43510477      -2.04002508       0.05797986      -0.01404383       0.23750701
H       -1.33734225       1.31727749      -2.03359717       0.00066878       0.06813534       0.24207563
H       -2.20794285       1.44712821      -0.47718671       0.10569274       0.02994638      -0.04963068
H       -0.68311009       3.13137262       0.34596315      -0.00461276       0.01622645      -0.10824367
H       -1.18733316       3.64599670      -1.28728591       0.01330911      -0.10032069       0.12848520
H        2.49884133       4.28454822       5.10039142      -0.25719627      -0.03023626      -0.04624916
H        0.81002837       4.84883173       5.11101008       0.04821690      -0.04756137       0.01712378
H        1.06158323       3.06983787       6.80696602       0.03479367      -0.05033945       0.00708621
H        1.75212970       1.97813768       5.59603623       0.01205722       0.04292236       0.05790778
H       -1.07789088       3.14003948       5.55862529      -0.02662491      -0.04930026      -0.02787497
H       -0.65138647       1.44900770       5.87360541      -0.06769152       0.05645775      -0.00419780
H       -1.92182797      -3.51006205      -1.92034606      -0.00926063      -0.09202096      -0.14072011
H       -0.83748101      -1.31968108      -2.26018484      -0.01604508      -0.00297182      -0.01795210
H       -1.10838044      -0.42479359       1.88874455       0.00748882       0.03138621      -0.02873736
