151
Properties=species:S:1:pos:R:3:MACE_forces:R:3 energy:=T -221.338509336722=T gnorm:=T 0.007739481456=T xtb:=T 6.7.1=T (edcfbbe)=T MACE_energy=-90873.62339438233 pbc="F F F"
C       -7.09468583      -4.69705702       2.76751894       0.19716817      -0.10168723      -0.33485015
N       -5.19180962      -6.69969037       3.30968886      -0.30333212       0.03353515      -0.01656996
O       -6.18051520      -5.64275040       0.69210166       0.00251220      -0.05581013       0.18948992
C       -5.87544496      -4.89229018       1.86604846      -0.09691308       0.21703102       0.05521802
N       -3.02595017      -4.12352521       0.34580411      -0.30130854      -0.02158357       0.22908607
O       -1.87325631       0.31348895       3.83101200       0.16649644      -0.59849148       0.23536964
C       -6.93173176      -4.94011190      -0.27319758       0.07776541       0.01726968       0.12144145
N       -0.12200281       3.33700081       3.09216104      -0.40821905       0.21560557       0.01458961
O       -0.43247308       0.81971639      -4.59691041       0.79977553      -0.19466089      -0.07126243
C       -4.78808510      -5.66159015       2.59206130       0.25055657       0.24268693      -0.21736273
N        1.09210790       3.91336405       3.47537494      -0.73070630      -0.07551987       0.93131144
O        4.31273168       2.94190617      -1.91016666      -0.12096217       0.22331878      -0.35875764
C       -4.30093251      -7.41788467       3.97070093       0.10193291      -0.12761810       0.07633274
N        3.00005208       4.23009162       0.37748371      -0.03942041      -0.62088119       0.45991153
O        2.16958138       6.10879079      -0.56438318       0.33641323      -0.09547696       0.03584039
C       -2.94457691      -7.13229093       3.96869078      -0.01390937       0.04801804      -0.04822665
N        4.11425902       5.08107781      -2.54723482       0.29811556       0.40089635       0.03291542
O        0.54724728       3.18272225      -1.36707380      -0.08637686      -0.09716079       0.19452576
C       -2.51345086      -6.05109216       3.22213971      -0.15824067      -0.04291737      -0.03126175
N        1.65222834       1.34508138      -5.33280678       0.12069918       0.10963058      -0.15800728
O        3.18079443       4.54891888       2.97009640      -0.39181894      -0.26861195       0.04525821
C       -3.43746919      -5.29380003       2.50267094      -0.06057240      -0.29798929       0.19706854
N        2.73276603      -3.37594634      -2.87417073       0.06503211      -0.12814815      -0.00768307
O       -2.67249319       2.27143593       3.08481463       0.42852930      -0.27905296       0.20418194
C       -2.95816967      -4.14800080       1.72231973       0.10774181       0.29387525       0.31735168
N       -0.68021475       0.81170708      -0.51077859      -0.17359762      -0.25368448      -0.12336025
C       -3.30502673      -5.26151385      -0.49527147       0.15703741      -0.51246352      -0.17712495
C       -2.03295015      -6.06073074      -0.77415934      -0.17397814       0.15264863      -0.04354237
C       -2.37279542      -2.99482589       2.19496962      -0.08490306      -0.35591352       0.06008192
C       -2.09021780      -2.62903800       3.61653917      -0.15971653       0.02444645      -0.00299061
C       -3.13099682      -1.71218018       4.29967558       0.14381372       0.23650650       0.05912351
C       -2.76299255      -1.58356614       5.78049993       0.01184117       0.01023211      -0.23898704
C       -4.53331319      -2.30523203       4.17070650       0.21068652       0.18020178      -0.07249034
C       -3.14968905      -0.31874804       3.66020239      -0.61512192      -0.15105967      -0.08479415
C       -1.76921826       1.58992235       3.51567079      -0.21709715       0.95327890      -0.48506145
C       -0.37989132       2.11067583       3.84211051      -0.19314353      -0.06580276       0.13043397
C        2.09329944       4.11655408       2.60598859       1.04879394       0.35966498      -0.70372318
C        1.81799098       3.85376503       1.12010712      -0.07259447       0.19090420      -0.12523105
C        3.08611446       5.31073940      -0.40041115      -0.16061426       0.38795395      -0.22640543
C        4.42098899       5.44077015      -1.15395362      -0.07953715      -0.05648313       0.39037377
C        5.05853938       6.81739027      -0.94575797      -0.02976079      -0.14941266      -0.00932731
C        6.44884432       6.87082108      -1.57693583      -0.28824805       0.00760721      -0.04594615
C        5.16330506       7.08396931       0.55703378      -0.21697783       0.01925106      -0.14854698
C        4.00716421       3.76843357      -2.77510326       0.41773861      -0.95349516       0.10622594
C        3.46538531       3.22835966      -4.11542970      -0.17667437      -0.25738033       0.15112678
C        1.96020868       3.49215409      -4.22471376       0.11052785      -0.13658985      -0.09964118
C        1.35860113       2.75702977      -5.42499438      -0.33813891       0.34808842       0.09557089
C        0.73670236       0.49490663      -4.82659051      -1.20409668       0.60379742      -0.11070503
C        1.18006259      -0.85218008      -4.58573366      -0.10442851      -1.12210777       0.33654602
C        1.33683026      -2.01465626      -4.30522535       0.14311465       1.08388078      -0.24546762
C        1.68272355      -3.37903872      -3.90786542      -0.09633447      -0.57834044       0.05563355
C        2.39898102      -2.58206440      -1.70476195      -0.07619654       0.11565828       0.07378346
C        4.05037526      -2.99665561      -3.35365040      -0.03563860      -0.00983802      -0.04112726
C        0.42613983      -4.07083015      -3.35246363       0.02883520       0.13876949       0.03417589
C        2.14377971      -4.15349850      -5.15279635      -0.00298358       0.11610414       0.07112113
C        3.06802146       1.06757996      -5.39013065       0.46977772      -0.10539449       0.13421679
C        3.77437016       1.72903061      -4.20540653      -0.08750364       0.10422983      -0.00108031
C        3.66717781       6.14849589      -3.41784298      -0.28372664       0.30583829      -0.22040784
C        1.44264473       2.40304512       0.80255986      -0.23011952       0.27027132      -0.36274654
C        1.30772637       2.17347392      -0.71318172       0.39173717      -0.36208738       0.02031996
C        0.69309930       0.79524747      -0.98038915       0.26402582       0.25701516      -0.25239801
C       -1.44960064       1.78427292      -1.27031053       0.01926771       0.30353112      -0.19710694
C       -0.83096543       3.15833340      -1.01844789      -0.21215851      -0.03096248      -0.04861057
C        1.25123774       4.21027319       4.89308871       0.24392945      -0.11157484       0.03331679
C        1.05760986       2.93579571       5.71063286      -0.18179411       0.22632221      -0.06702901
C       -0.29649323       2.31967119       5.36680428       0.37810221      -0.14108471      -0.07588032
C       -2.04788708      -2.21667469       1.04581057       0.03003474      -0.25661097      -0.48360048
C       -2.46746973      -2.95479147      -0.08891614       0.24974018       0.70515075       0.02739080
C       -2.29752071      -2.45478745      -1.37643906      -0.08785635      -0.07422799      -0.11491519
C       -1.71119827      -1.21601284      -1.52394500       0.08843309       0.12172971      -0.15135969
C       -1.27882182      -0.48264101      -0.40869629       0.07803499       0.15123165       0.25457911
C       -1.42750554      -0.98265474       0.86679950      -0.04378780      -0.07359614      -0.11811646
F        4.12151088       3.85699258      -5.18955722       0.01263253       0.07827227      -0.08953097
H       -7.52544589      -5.66733071       2.99434440      -0.02847348       0.03020223       0.04149681
H       -6.78929284      -4.21711410       3.69211420      -0.01990300       0.04121409       0.07067212
H       -7.83645346      -4.07243125       2.27752367      -0.04030127       0.05260929      -0.00013783
H       -5.47741035      -3.91120668       1.55771262      -0.08768341      -0.28509514       0.07897446
H       -6.45236809      -3.98480652      -0.51944077      -0.05517188      -0.06744703      -0.02517864
H       -6.95485684      -5.57704011      -1.15478550      -0.06864278       0.11959032      -0.02224451
H       -7.95453569      -4.75304248       0.06499550       0.04805265       0.00756097      -0.05614273
H       -4.70392137      -8.25260791       4.52621380       0.09972624      -0.08009795       0.08833227
H       -2.25164761      -7.73903452       4.52812890       0.03630342      -0.04535855       0.04017513
H       -1.46655247      -5.78871804       3.17550933       0.02094602       0.00892466      -0.00143675
H       -4.04601827      -5.89299674      -0.00249024       0.11832834       0.23743496      -0.22549334
H       -3.73111877      -4.89765380      -1.43271737      -0.05995857      -0.05876133       0.16497515
H       -1.28528598      -5.42446334      -1.24276108       0.03501937      -0.04529182      -0.00419918
H       -1.62397495      -6.45453610       0.15358440       0.01238407      -0.02382218       0.01404773
H       -2.25656274      -6.89090741      -1.43812733       0.04790580      -0.08179539      -0.04276803
H       -2.02784225      -3.54365818       4.20807033       0.08883527       0.09692752       0.05672160
H       -1.12271872      -2.12567785       3.65664472       0.01713051      -0.12638327       0.11531963
H       -2.81581821      -2.55515365       6.26412556       0.00847042      -0.06189630       0.04638022
H       -1.75400239      -1.19544978       5.88792479       0.04911536       0.01018645       0.07600157
H       -3.45037859      -0.90987459       6.28580987      -0.04160444       0.05733881       0.08309120
H       -4.84650088      -2.31939139       3.13050758      -0.07749640      -0.05091228      -0.03704602
H       -4.54149773      -3.32478562       4.54786048      -0.04768202      -0.04787216       0.00809708
H       -5.25080726      -1.71790653       4.73807816      -0.07707500       0.01271353       0.04184012
H       -3.91194767       0.31270848       4.12931852       0.13911646      -0.14510585      -0.07189276
H       -3.36938726      -0.37791367       2.58988945       0.05375270       0.02788859       0.21752820
H        0.36256501       1.36588998       3.53737304      -0.13055509       0.12309620       0.05890711
H       -0.89230985       3.99137235       3.23664113       0.24940091      -0.16053507      -0.06870913
H        1.02087239       4.53380527       0.79840843       0.16518616      -0.24023198       0.04695484
H        3.79937223       3.61934180       0.46977101      -0.14295233       0.32773220      -0.20723986
H        5.11531340       4.67869787      -0.78669890      -0.16162560       0.23942612      -0.07325746
H        4.40982361       7.58416924      -1.37511825       0.06688205      -0.09877289       0.03481441
H        6.84730722       7.87928007      -1.51435174       0.07832927       0.04959330      -0.01347584
H        7.12074632       6.20257309      -1.04342668       0.08045983      -0.05494584       0.02324002
H        6.43240907       6.56759337      -2.61982729       0.05457050      -0.00551658      -0.08766033
H        5.63491241       8.04747995       0.72818390       0.04130206       0.03376333       0.06765139
H        4.17830860       7.09557408       1.01879649       0.05494332       0.04547108       0.05010478
H        5.75512269       6.31398300       1.04665084       0.06275781      -0.03216066       0.02680391
H        1.48387067       3.15177872      -3.30383944       0.00262489       0.04852529      -0.15977837
H        1.75972603       4.55667320      -4.31813207       0.04504434      -0.02045665       0.06850904
H        1.78902541       3.13813166      -6.35607505      -0.11483266      -0.06384049       0.08836726
H        0.27476015       2.88585336      -5.43869213       0.25626160      -0.02718313      -0.04689124
H        1.42052074      -2.85194847      -1.31737792       0.04497883       0.07389461       0.03613225
H        3.13871562      -2.78742791      -0.93219149      -0.04234101       0.02038764      -0.00450501
H        2.40434853      -1.50021985      -1.91201158      -0.03423851      -0.15433455       0.03247093
H        4.40385058      -3.71036722      -4.09187917       0.07658105       0.08482455      -0.01489530
H        4.07341630      -1.98283781      -3.78253861       0.01105715      -0.08057623      -0.00217129
H        4.73443269      -3.02138131      -2.50728125       0.01656006       0.01003566      -0.04888692
H        0.71847746      -5.01349119      -2.89906337       0.00980773      -0.06104926       0.00802355
H       -0.07792445      -3.45260993      -2.61370465       0.05789700      -0.07041964      -0.04271975
H       -0.27515147      -4.26188768      -4.16044866      -0.03248539       0.01335448      -0.00945302
H        2.91647921      -3.61727518      -5.69593083       0.01348159      -0.02791655       0.00649739
H        2.51844821      -5.12666504      -4.84992823       0.02728763      -0.06596911       0.02692453
H        1.29920060      -4.29157750      -5.82232121       0.00599563       0.01436786      -0.00641516
H        3.23071321      -0.01105305      -5.36712908       0.01212839       0.26623761      -0.09476936
H        3.46024603       1.47030806      -6.32912405      -0.09824702      -0.15217360       0.06734965
H        4.85435110       1.59640237      -4.28576176      -0.09423096       0.01723838       0.10232096
H        3.44461626       1.26781031      -3.27262055       0.08040123       0.04646957      -0.16680790
H        3.45327141       5.78343850      -4.41633095       0.11557005       0.03258278       0.19895761
H        2.77085108       6.60542931      -2.98799375       0.13204715       0.00674768      -0.11618762
H        4.44985082       6.90319483      -3.49343127      -0.13347201      -0.06508578      -0.05685479
H        2.21937054       1.73226791       1.17273222      -0.02050388      -0.05659028       0.05863933
H        0.49335013       2.16080399       1.27388083       0.31771944      -0.05124871      -0.00228976
H        2.29827105       2.23439760      -1.17920419      -0.36979847      -0.11761480       0.16592497
H        1.24805068       0.02569468      -0.43720124      -0.06055797       0.11835594      -0.09789053
H        0.74949371       0.57583351      -2.06523391       0.04405567       0.00099794       0.33263101
H       -1.44684378       1.57359403      -2.35727382      -0.00782626       0.05933664       0.31787850
H       -2.48167279       1.77682220      -0.90612585       0.16740992       0.02534559      -0.08508748
H       -0.96102814       3.42410755       0.03853566      -0.00201146       0.01615427      -0.14985885
H       -1.30172658       3.91805591      -1.64653298       0.03899483      -0.12061621       0.16442034
H        2.24794095       4.62916707       5.02671778      -0.22537426      -0.03660381      -0.01650877
H        0.50188760       4.95804930       5.17312383       0.05172582      -0.02707485       0.01600380
H        1.10602704       3.17383030       6.77199114       0.05187146      -0.04343010       0.01779715
H        1.85575623       2.23093687       5.47480065       0.00956562       0.04892304       0.05300691
H       -1.10132229       2.98959938       5.67964465      -0.01067789      -0.06247508      -0.03462893
H       -0.42647305       1.36221960       5.86968545      -0.06901257       0.04944359      -0.00263079
H       -2.62054813      -3.01006760      -2.24389016       0.00907063      -0.02974748      -0.04467349
H       -1.57055264      -0.80355508      -2.51365468       0.01995709       0.01412174      -0.00374343
H       -1.05956087      -0.40845727       1.70029126      -0.00461219       0.06665638      -0.03213104
