151
 energy: -221.338650176372 gnorm: 0.005288051262 xtb: 6.7.1 (edcfbbe)
C           -7.01702209751998       -4.68887645556250        2.68814328065035
N           -5.16610361259889       -6.71862104543255        3.35857256200783
O           -6.08572161858335       -5.83677153143273        0.71620203005531
C           -5.79306066782029       -4.98117563225816        1.82011986661586
N           -2.81901249027253       -4.19688149920338        0.45849802371458
O           -1.90433853272040        0.37483056845662        3.79665434135028
C           -6.97463016391118       -5.29589866565848       -0.23644653068822
N           -0.22123810375303        3.42040828571432        3.20013415586313
O           -0.23955380323267        0.56077694659070       -4.37479812023417
C           -4.73141150470782       -5.69850353332213        2.63125048397840
N            0.92574944513039        4.07378422756268        3.66375725084403
O            4.25387732032551        3.09271356389595       -2.07521807447601
C           -4.31321060924764       -7.39925756662770        4.10065452538522
N            2.99086252744805        4.34042628375936        0.66163721423571
O            1.97748444901564        6.09536522720156       -0.32528712201394
C           -2.96271004076903       -7.09177269924568        4.17789940435818
N            3.78058620741802        5.25693758681073       -2.44899371700285
O            0.96660392988627        3.02123379481267       -1.13105087521728
C           -2.50010268707356       -6.03049566404788        3.42414151439295
N            1.57981154866434        1.48568620711014       -5.37788941761231
O            3.00651749116339        4.82618829585250        3.27418176788624
C           -3.38462890847547       -5.31224951923472        2.61690526301441
N            1.82272146868068       -4.07972021500010       -3.60773043346315
O           -2.78723495794833        2.33911382065297        3.17189219904126
C           -2.84622897363418       -4.19263759270259        1.83754312690091
N           -0.31074451226480        0.66374530732337       -0.33575744483268
C           -3.14514982086451       -5.31462256667055       -0.39231803396580
C           -1.91852801841305       -6.18579129003841       -0.65564589049570
C           -2.24276689682383       -3.05309619946441        2.32158788235356
C           -2.08318652886915       -2.61959653321741        3.74275346558225
C           -3.17492037844069       -1.65414488133838        4.26236435289485
C           -2.94416290419950       -1.41883806795833        5.75755727580128
C           -4.56224287578992       -2.25527315623811        4.04362350717325
C           -3.13542173933681       -0.30934935472323        3.52551243321232
C           -1.86464072204857        1.67509274814568        3.59295475960443
C           -0.53461535775572        2.26225540915823        4.03192801605369
C            1.98307253156041        4.28613874508999        2.86628719596725
C            1.83087529919662        3.88844480972862        1.39592725779277
C            2.95148023512921        5.36274592322964       -0.19693965694021
C            4.20512174812522        5.51295370851628       -1.06742375058097
C            4.91104462106210        6.85063362467786       -0.82099087399939
C            6.08454820311852        7.03043287543796       -1.78106895238204
C            5.40614861100373        6.85765331667589        0.62631298247265
C            3.79705359110148        3.96763413072214       -2.81517180602588
C            3.23626261279601        3.52500736295492       -4.18679839196127
C            1.70613455285665        3.59723125268736       -4.15830934157286
C            1.05352544580821        2.82849136178131       -5.31081692167705
C            0.91653689879889        0.46641245502793       -4.80193669495511
C            1.62045504025144       -0.78501013813948       -4.72198321250172
C            2.12603916178386       -1.86769694290798       -4.56643543598813
C            2.69701776523952       -3.20380454125045       -4.40512050943295
C            0.49394509548216       -4.24551595743894       -4.16762860104030
C            1.71833680196002       -3.70584167319993       -2.20844690030689
C            2.90693321208324       -3.81315998280499       -5.80353410834334
C            4.07441601928405       -3.06344550353721       -3.73703047597732
C            2.99621926268769        1.46703103619824       -5.65620037248106
C            3.75008599442800        2.11423521497702       -4.49504939644442
C            3.05199219290983        6.30799403443296       -3.12916026124711
C            1.63299805614593        2.38777990948283        1.15641630329104
C            1.66762094895754        2.06158257564091       -0.34943004050567
C            1.11257991610074        0.65483879157177       -0.60531351549607
C           -0.98451584781296        1.57992159435265       -1.23823777593847
C           -0.43980776002770        2.97518730194046       -0.95145677391010
C            0.90562828485866        4.51883787571685        5.04944314145265
C            0.63288318369613        3.32958819098105        5.96706933037552
C           -0.64993506409308        2.62772787266192        5.52567605989050
C           -1.80504624235110       -2.31967319022284        1.18147508485925
C           -2.17951381041805       -3.06567771449191        0.03724037346766
C           -1.91093582269810       -2.59606615896201       -1.24459418493551
C           -1.28946702333318       -1.37303784658245       -1.37194506641979
C           -0.90810143759748       -0.62902173500490       -0.24441919278137
C           -1.13634883818277       -1.10836050692363        1.02722004353661
F            3.71729302854540        4.37175212599494       -5.20227373053840
H           -7.45421221264278       -5.62801532885506        3.01339902501381
H           -6.71200925358552       -4.11749834122175        3.55896636762889
H           -7.75250493892467       -4.11296982932445        2.13366295389335
H           -5.38176167170219       -4.03543779451719        1.42803698893903
H           -6.90902051732827       -5.94653843766297       -1.10574458548092
H           -8.00452170265582       -5.28630190878128        0.13022321553098
H           -6.67840172055165       -4.27834439733496       -0.51487929066005
H           -4.73691898840082       -8.22155530933135        4.66073364834031
H           -2.29983546665064       -7.66754263438939        4.80286363983630
H           -1.45610004558934       -5.75382375238684        3.43749298348062
H           -3.92975090517228       -5.90735464467250        0.08100124872441
H           -3.53243292281677       -4.92099674614747       -1.33549465279960
H           -1.12839428451698       -5.59425763487025       -1.11349143278969
H           -1.54453336813126       -6.60243535716829        0.27654099492039
H           -2.18101193198615       -7.00121113493270       -1.32277734674580
H           -2.09239976984976       -3.49812697205709        4.38944235701846
H           -1.11746770811814       -2.12287047638768        3.84655239180530
H           -1.94349252410638       -1.03119920763111        5.92962212722678
H           -3.66535304306569       -0.70327946958785        6.14537626414405
H           -3.05517577398058       -2.35101258122581        6.30411483964000
H           -4.61624219183325       -3.23994852022528        4.50035166284283
H           -5.32771213784430       -1.62195057938266        4.48527311171998
H           -4.76841588234746       -2.35430412920667        2.98156985228712
H           -3.96173444102566        0.33215674007377        3.84945151349817
H           -3.21969336815857       -0.45349941793379        2.44417818673024
H            0.25515507212680        1.51763049357448        3.89641194313221
H           -1.02159306209877        4.05605522525073        3.20171742295274
H            0.98229499445275        4.45361150988025        0.99331478409100
H            3.83169030712615        3.79141436333656        0.75219156351322
H            4.90815705221448        4.71000253766367       -0.82600699527607
H            4.19217345863076        7.66732388602907       -0.93534608323527
H            5.75800586762176        7.03239011407312       -2.81694493677624
H            6.59139724098942        7.96870442035249       -1.57494636040281
H            6.79522413499875        6.21737957382617       -1.65154526917778
H            4.58303624940187        6.70128136176461        1.32110324589955
H            6.13784502188669        6.06774574234815        0.78048863024264
H            5.87449842893277        7.81006487016762        0.85609143826760
H            1.37784411342364        3.18789891504572       -3.20166293383228
H            1.38756182373454        4.63563951720558       -4.21129878402221
H            1.25806614301553        3.32656138628015       -6.26243872637080
H           -0.02467286006685        2.77179451972179       -5.15172530330503
H           -0.09372288922403       -3.31169833725443       -4.15868394788311
H            0.55364914809865       -4.61378176334821       -5.18724067162676
H           -0.03438174924745       -4.98981184302145       -3.57117124579983
H            1.07580263368860       -4.43152861108311       -1.71259796131865
H            2.69307082755625       -3.74538321079963       -1.73185672300150
H            1.28032323971174       -2.70627270346400       -2.05879175718572
H            3.71067221998301       -3.29014992655857       -6.31368821239509
H            3.17351203586432       -4.85988774365163       -5.69315322218480
H            2.01429857220669       -3.73073251647102       -6.41713310054614
H            4.02307078498745       -2.45482533156438       -2.83821415457039
H            4.45118056730140       -4.05049692763967       -3.48766665003672
H            4.76384590816836       -2.58199785377281       -4.42515629933505
H            3.33118453025549        0.43889174678702       -5.79486427421617
H            3.16799463382401        2.03305463462925       -6.57548063729655
H            4.81455646614861        2.17519591975183       -4.72147116752618
H            3.62633789476238        1.51302333685510       -3.59371953016297
H            3.13904704401961        6.20471562611225       -4.20521265334455
H            2.00386732434144        6.29923411955087       -2.82269351882665
H            3.47086024250070        7.26691930703866       -2.84174734514851
H            2.42967512748670        1.82784534943906        1.64643059968769
H            0.67064104041116        2.07839676340236        1.55671639517419
H            2.69429225251261        2.12280966294898       -0.72725215657688
H            1.59730250757153       -0.06230038202640        0.05850108997777
H            1.32704763469254        0.36642135940023       -1.65219831423955
H           -0.81828254454296        1.33029497387630       -2.29959986995027
H           -2.05590291721359        1.55262566947574       -1.03294139866927
H           -0.70575914900113        3.26187802422959        0.07239487046044
H           -0.84543289653927        3.70914068212055       -1.64985042288409
H            1.87288635618748        4.97558398882091        5.25716373079802
H            0.11843659130871        5.27276104124588        5.15853259740740
H            0.53726542127700        3.67861638946364        6.99398453562209
H            1.47060479934519        2.63358934490512        5.91204631424392
H           -1.50803146069278        3.29058517931122        5.66226113635516
H           -0.81461061516351        1.72315813642696        6.10987519195464
H           -2.18412512875547       -3.15870790202892       -2.12454483181386
H           -1.08898341460917       -0.97476537386642       -2.35740232023361
H           -0.80798258366542       -0.53251020331836        1.87687135303259
