151
Properties=species:S:1:pos:R:3:MACE_forces:R:3 energy:=T -221.336987473825=T gnorm:=T 0.004545237617=T xtb:=T 6.7.1=T (edcfbbe)=T MACE_energy=-90873.46002035176 pbc="F F F"
C       -7.10806677      -4.93971122       2.94993987       0.17643610      -0.09487405      -0.35893124
N       -5.05196587      -6.72584990       3.70118198      -0.31879381      -0.04392695      -0.04496502
O       -6.06183561      -6.01712780       1.00622890      -0.01085581      -0.03868792       0.21870170
C       -5.85349984      -5.11608499       2.09474575      -0.12631244       0.15902126       0.01152985
N       -3.00907754      -4.14298407       0.63199046      -0.34649330      -0.03014579       0.05545046
O       -2.05736237       0.49932568       3.94768463       0.09906454      -0.64991337       0.34190414
C       -6.78330188      -5.47635227      -0.07659110       0.06751190       0.05706570       0.10073064
N        0.06110299       3.25141161       3.09871229      -0.40387644       0.23913754      -0.02048591
O       -0.66717314       0.73324283      -4.40365738       0.75319751      -0.08008038      -0.22157130
C       -4.72572473      -5.70691440       2.91870897       0.22696906       0.24703004      -0.24595184
N        1.33217804       3.69336554       3.48098393      -0.59233875      -0.02961873       0.90529011
O        4.00174744       2.70031076      -2.45769224      -0.14622394       0.35372944      -0.30951941
C       -4.12271938      -7.29892975       4.44377422       0.16228864      -0.10602463       0.13556812
N        3.15833371       3.94328504       0.31778678      -0.06512484      -0.67123192       0.42265182
O        2.40223388       5.91657055      -0.47137052       0.26021915      -0.10870450      -0.00512756
C       -2.80163094      -6.87791768       4.46384830      -0.03250458       0.03824857      -0.02919335
N        3.92664951       4.92214585      -2.75663677       0.36251925       0.29535463       0.17095220
O        0.56021094       3.09614331      -1.29385011      -0.01780424      -0.04180953       0.11347082
C       -2.45184467      -5.81450780       3.65323268      -0.13647781      -0.09510278      -0.05711212
N        1.08271243       1.54591043      -5.61288316       0.02784901       0.14787375      -0.33061933
O        3.45185023       4.20085236       2.93728420      -0.45204210      -0.23466106      -0.01166718
C       -3.41773454      -5.20955238       2.84794368      -0.01181658      -0.30757182       0.25413219
N        2.55079959      -3.10399451      -2.80398109       0.16494848      -0.12484139      -0.13286846
O       -2.57429945       2.45673341       2.97965831       0.43392242      -0.35740606       0.30031894
C       -3.01345743      -4.07678347       2.00889422       0.09693497       0.36659728       0.36330993
N       -0.72224168       0.77394830      -0.41920165      -0.17123093      -0.23915620      -0.12609506
C       -3.16276215      -5.34744798      -0.14630318       0.20339643      -0.42934878      -0.14427922
C       -1.82085996      -6.05643415      -0.32377625      -0.18704939       0.12451100      -0.05251959
C       -2.53516004      -2.85706788       2.43212848      -0.04718490      -0.41336167       0.08157326
C       -2.38639184      -2.38379594       3.84179547      -0.16447965       0.04097579      -0.05221202
C       -3.48706329      -1.41938711       4.34657905       0.16603874       0.22001263       0.04653593
C       -3.33394208      -1.26117285       5.86176788       0.02533941       0.01026177      -0.22820871
C       -4.87192902      -1.97903724       4.02573563       0.19703083       0.18008186      -0.05201877
C       -3.36284444      -0.03913529       3.68740221      -0.49934748      -0.10956312      -0.21139726
C       -1.78651571       1.72170262       3.53270839      -0.12096316       1.05996775      -0.60260144
C       -0.35861273       2.10204190       3.89398017      -0.16782255      -0.02197824       0.14725538
C        2.33062896       3.84473708       2.59388017       0.86972438       0.32261657      -0.68861068
C        1.99584616       3.61786548       1.11572638       0.01837798       0.14531136      -0.06910630
C        3.24500783       5.02658158      -0.45676431      -0.06949144       0.38273652      -0.16095361
C        4.46260949       5.04189156      -1.39351747       0.00519257      -0.02564868       0.30091906
C        5.36581750       6.25312948      -1.14503507      -0.00436074      -0.15764233      -0.01503595
C        6.57299860       6.22743953      -2.08085019      -0.29311940       0.06191482       0.03011827
C        5.83463957       6.20305469       0.31007008      -0.27954283       0.12265099      -0.10700425
C        3.69584673       3.66899229      -3.16123163       0.27277682      -0.90381393      -0.05665660
C        3.01227877       3.36994718      -4.51369327      -0.18085188      -0.30207775       0.21718453
C        1.50134270       3.58784463      -4.35622615       0.04235449      -0.11958291      -0.14147749
C        0.68204078       2.92593218      -5.47114009      -0.27808517       0.35940889       0.29103939
C        0.44332162       0.57944151      -4.92060506      -1.15894404       0.33579918       0.21674796
C        1.15206197      -0.66720538      -4.81555573       0.28978012      -1.06129283       0.33738443
C        1.73400822      -1.69811901      -4.59127896      -0.40620186       0.91922794      -0.20732576
C        2.52834543      -2.87954329      -4.26063191       0.22267420      -0.45028814       0.03813123
C        1.23517789      -3.24493023      -2.20538715      -0.12906385       0.11312580       0.07707552
C        3.31994226      -2.11963643      -2.06300083       0.02251058       0.06651510      -0.03276903
C        1.95007231      -4.11236574      -4.97329812      -0.04737172       0.08485017       0.06778971
C        3.95535055      -2.65278682      -4.78885185      -0.08407828       0.07828666       0.08205940
C        2.45755598       1.42232841      -6.04087396       0.48236181      -0.01409787       0.11413353
C        3.37464738       1.94143664      -4.93689574      -0.11489936       0.04280724       0.01164092
C        3.40539042       6.13283329      -3.35463328      -0.38040499       0.32779462      -0.11020152
C        1.54545041       2.19398584       0.78302889      -0.26813626       0.30631315      -0.43127932
C        1.30732383       2.02723418      -0.72836970       0.37584347      -0.48030591       0.00765986
C        0.60315470       0.69351954      -0.99415898       0.33726037       0.28533629      -0.20991884
C       -1.49475691       1.79482915      -1.10474643       0.02976685       0.34842893      -0.18549850
C       -0.79280875       3.12940806      -0.86289983      -0.28646807      -0.02627912      -0.02824081
C        1.52087702       4.01239263       4.89103641       0.28477013      -0.10251131       0.02927818
C        1.14429281       2.80852575       5.74988073      -0.20337625       0.25277814      -0.06510844
C       -0.27841022       2.37139565       5.40852138       0.29479496      -0.25050257      -0.10512579
C       -2.18912012      -2.13738431       1.25214187       0.03379080      -0.25464225      -0.40257462
C       -2.50028219      -2.97047513       0.14815689       0.17080225       0.63819507       0.13953656
C       -2.27950740      -2.54919282      -1.15938258      -0.04134352      -0.10387787      -0.19261865
C       -1.72861580      -1.30156978      -1.35822544       0.03471292       0.12714528      -0.18025668
C       -1.36772554      -0.49209046      -0.27199266       0.08270813       0.21614468       0.33602962
C       -1.58899914      -0.90300476       1.02386271      -0.05088674      -0.05948093      -0.20533875
F        3.49680952       4.22307796      -5.51961074       0.02263983       0.09746432      -0.16004373
H       -6.89558697      -4.26148631       3.77013368      -0.04764418       0.05095299       0.07605098
H       -7.92026957      -4.52711896       2.35832530      -0.03081475       0.06561204       0.00664152
H       -7.40205146      -5.90558291       3.34806481      -0.02334887       0.02323939       0.03494831
H       -5.53462761      -4.14261518       1.68983064      -0.03558027      -0.23268820       0.10202858
H       -6.83797678      -6.26792964      -0.82083496      -0.05552885       0.12541233      -0.04196891
H       -7.79644246      -5.18041708       0.21160254       0.06246368      -0.02651353      -0.06181763
H       -6.26310743      -4.60599794      -0.49743858      -0.06924974      -0.06850372       0.00702297
H       -4.46118084      -8.12696900       5.05101596       0.09276458      -0.05311664       0.07398553
H       -2.07396917      -7.36795816       5.08987899       0.02417435      -0.02729357       0.03701931
H       -1.43531469      -5.44968543       3.62300238       0.01078371       0.02451270      -0.00083705
H       -3.87287621      -6.00766348       0.35515302       0.08906770       0.23747574      -0.18877521
H       -3.57250664      -5.07455914      -1.12157120      -0.06818477      -0.06443379       0.17568609
H       -1.94894176      -6.94452006      -0.93486545       0.05705494      -0.10032332      -0.04858035
H       -1.10609248      -5.39333237      -0.80676908       0.05457628      -0.02881415      -0.01430689
H       -1.42189538      -6.35223858       0.64353742       0.01758988      -0.01944770       0.02224984
H       -2.39064785      -3.25325919       4.50088186       0.07618101       0.10526035       0.03945594
H       -1.42487560      -1.87798850       3.94389632       0.01235792      -0.13537187       0.12280799
H       -2.34538288      -0.88049767       6.10309673       0.04866620       0.00303962       0.08730581
H       -4.07704923      -0.56826942       6.24861888      -0.04841897       0.05737162       0.07164990
H       -3.46894641      -2.21963099       6.35537555      -0.00241116      -0.06725926       0.06530995
H       -4.96912407      -2.97741621       4.44556315      -0.03568774      -0.04996794       0.01335329
H       -5.64947401      -1.34614620       4.44580604      -0.08432495       0.02061571       0.05637816
H       -5.02030531      -2.04189711       2.95074231      -0.04878382      -0.04043854      -0.03348444
H       -4.11164017       0.65181941       4.08771415       0.11811449      -0.14389663      -0.06422863
H       -3.50302965      -0.10393218       2.60440597       0.02125449       0.03964604       0.21099534
H        0.29886964       1.26262747       3.64455017      -0.09868888       0.11800776       0.03713354
H       -0.62716979       3.99977165       3.19101541       0.21042710      -0.15747166      -0.04882905
H        1.21803252       4.33722970       0.83461169       0.18674703      -0.26733372       0.05149542
H        3.89052538       3.24975712       0.29069357      -0.12369802       0.29118600      -0.18084084
H        5.05298798       4.13596540      -1.22656296      -0.10594737       0.27822328      -0.01218372
H        4.78826105       7.16977850      -1.28703656       0.04643967      -0.12001444      -0.00786318
H        7.18847614       5.35651602      -1.86656012       0.06067789      -0.04875006      -0.00203651
H        6.27400188       6.17804336      -3.12428823       0.03278385       0.00801363      -0.08099170
H        7.17517674       7.11959900      -1.93445427       0.08762802       0.02997254      -0.02275904
H        4.98904018       6.23435771       0.99404546       0.06678360       0.01159081       0.06890031
H        6.38960053       5.28742671       0.49991628       0.07055551      -0.06956592       0.02758430
H        6.48206442       7.04882072       0.52155014       0.06384843       0.04646153       0.05765909
H        1.20025133       3.17878316      -3.38935207      -0.01428326       0.04181338      -0.14875630
H        1.28699430       4.65574335      -4.34118590       0.05163179      -0.05849150       0.10407415
H        0.84782657       3.43497846      -6.42370284      -0.08058887      -0.07529003       0.08591253
H       -0.37810954       2.95919753      -5.21636948       0.20248328       0.01816344      -0.11917845
H        1.36055075      -3.64050328      -1.19783635      -0.07879635       0.03348575      -0.03391757
H        0.68950804      -2.29248114      -2.13579032       0.06956109      -0.14839664      -0.04745067
H        0.62982276      -3.94625057      -2.77020935      -0.03708255      -0.01407852       0.05988258
H        3.21858971      -2.34235856      -1.00231808       0.03509292       0.03656131      -0.02655369
H        4.37311997      -2.18975114      -2.32121209      -0.01195138       0.07227224       0.04331705
H        2.97540073      -1.08623406      -2.22894632       0.02259649      -0.08970862       0.00429214
H        2.07342149      -4.00320994      -6.04721427      -0.02125080       0.00041090      -0.02001247
H        2.48742278      -4.99392676      -4.63715919       0.03405167      -0.05136391       0.01672394
H        0.89060469      -4.24065926      -4.77270181       0.02520777      -0.01451933      -0.00642269
H        4.60796952      -3.42985080      -4.40273751       0.04438724      -0.06571892       0.02448205
H        3.95112138      -2.70182542      -5.87402456      -0.00489977       0.02414847      -0.01508281
H        4.33757336      -1.67845181      -4.49648596       0.03200523      -0.04187700       0.00822976
H        2.68563525       0.37935796      -6.25954366      -0.02779603       0.23493353      -0.05054284
H        2.58301574       2.01864153      -6.94781611      -0.02846470      -0.15068711       0.03647346
H        4.41355910       1.93458150      -5.26743960      -0.02077346       0.00849730       0.10604889
H        3.28987542       1.30123074      -4.05726244       0.02420979       0.07420605      -0.20246127
H        3.04277307       5.95587117      -4.35937113       0.12418199      -0.02649358       0.09667379
H        2.59464011       6.51631647      -2.72976808       0.16358162       0.03132325      -0.12603430
H        4.19496577       6.87879739      -3.40678054      -0.06899922      -0.01408056      -0.05804915
H        2.31473127       1.48360528       1.08505036       0.02229723      -0.06792839       0.05227619
H        0.61806490       1.97004134       1.30378369       0.27042591      -0.02802985      -0.00839883
H        2.26191814       2.05562207      -1.26492399      -0.25791549      -0.08548764       0.21603431
H        1.15213004      -0.11897520      -0.51551187      -0.01149132       0.05232199      -0.06507428
H        0.57395364       0.50702448      -2.08349987       0.03318635      -0.01422000       0.26164964
H       -1.56831602       1.60004883      -2.18904682       0.00283802       0.04640863       0.19997548
H       -2.49750034       1.82751138      -0.67610485       0.06402987       0.03318569      -0.04132782
H       -0.84675710       3.37169118       0.20527042      -0.01788948       0.00184531      -0.11966620
H       -1.25714123       3.93034314      -1.44023775      -0.01478838      -0.10265635       0.12334323
H        2.56652267       4.29046300       5.02017070      -0.23488162      -0.00428332      -0.00574600
H        0.88598126       4.86996862       5.14006264       0.05975306      -0.04798220       0.00737412
H        1.21760961       3.07601874       6.80290621       0.04712791      -0.04492050       0.00713346
H        1.83825120       1.99117887       5.54933211       0.03223278       0.02808056       0.04912669
H       -0.98595859       3.16181110       5.67002916      -0.02471445      -0.05282518      -0.02056125
H       -0.54900786       1.46840590       5.95353765      -0.05415833       0.05486939       0.00568447
H       -2.52356207      -3.17476080      -2.00445539      -0.01780042      -0.03895001      -0.01991805
H       -1.55447596      -0.94095153      -2.36347011       0.02951974      -0.01550744       0.00487802
H       -1.26694295      -0.26596559       1.82948702      -0.01564382       0.01091258       0.01179615
