151
Properties=species:S:1:pos:R:3:MACE_forces:R:3 energy:=T -221.338789675390=T gnorm:=T 0.005863487874=T xtb:=T 6.7.1=T (edcfbbe)=T MACE_energy=-90873.61899232231 pbc="F F F"
C       -7.12895865      -4.67922219       3.18837358       0.13557072      -0.08813591      -0.36724529
N       -5.22638553      -6.72443747       3.47776984      -0.30586508       0.02197578       0.01681654
O       -6.40184440      -5.53887593       1.00157842       0.02245269      -0.06833053       0.20820624
C       -5.99330563      -4.84401103       2.17882183      -0.07169384       0.18704169       0.04525963
N       -3.16490886      -4.10252304       0.45721561      -0.26983110      -0.02659037       0.19294407
O       -1.72975394       0.25952948       3.91206399       0.15030988      -0.61708333       0.23191207
C       -7.27042576      -4.81110146       0.16179425       0.10445919       0.01471253       0.09040075
N        0.12047184       3.20704389       3.15470728      -0.38212751       0.23780975       0.03331589
O       -0.63597503       0.55407117      -4.41336941       0.83551817      -0.08797606      -0.20717568
C       -4.86288303      -5.65693614       2.78128208       0.23366296       0.25254295      -0.22408547
N        1.36003113       3.75307192       3.50225210      -0.65527120      -0.13086272       0.86961576
O        4.07907817       2.98203996      -2.27475402      -0.11455735       0.21379065      -0.28612243
C       -4.29960588      -7.48255632       4.03540845       0.12381645      -0.15647855       0.08484878
N        3.03364080       4.18202244       0.28164883       0.00984828      -0.60443570       0.45723227
O        2.00513047       6.01574028      -0.54326516       0.24808317      -0.04527740       0.01232295
C       -2.94293390      -7.21035982       3.94731086      -0.01145742       0.04576220      -0.03791556
N        3.69921500       5.13254204      -2.78622334       0.30024000       0.28817197       0.06973502
O        0.67355944       3.04180855      -1.31046281      -0.03264184      -0.07875729       0.13888746
C       -2.55380899      -6.10010076       3.22150129      -0.15888971      -0.05331933      -0.00539891
N        1.25598433       1.29105385      -5.43505552       0.05970127       0.08713352      -0.19480977
O        3.41603811       4.41938659       2.88929492      -0.49867462      -0.32048893       0.01829545
C       -3.51862187      -5.30079489       2.60790973      -0.04656520      -0.25867134       0.14988919
N        3.41541793      -3.02889495      -3.08950729       0.05774695      -0.11192176      -0.00498217
O       -2.47587255       2.27445669       3.26987739       0.43131714      -0.31793945       0.17508311
C       -3.06432643      -4.14089591       1.82999910       0.12406321       0.23012597       0.34505595
N       -0.60298185       0.71076035      -0.44582889      -0.24433605      -0.28578079      -0.02887693
C       -3.58652845      -5.18532724      -0.39707022       0.10781118      -0.49301357      -0.19123123
C       -2.40200151      -6.06191964      -0.80051046      -0.17720362       0.16513579       0.01986168
C       -2.41440803      -3.01928880       2.29455424      -0.10962522      -0.28755745       0.07051365
C       -2.08430767      -2.67405770       3.71185078      -0.16532874      -0.01690628      -0.01437092
C       -3.06463630      -1.70878332       4.41798644       0.15681429       0.23264844       0.06150140
C       -2.65616965      -1.59177507       5.88900320       0.00153285       0.00583808      -0.22663725
C       -4.49469958      -2.23949366       4.32657454       0.21793044       0.19248352      -0.10311014
C       -3.03766489      -0.31675201       3.77532196      -0.59240951      -0.12512810      -0.06308539
C       -1.58494942       1.54094841       3.63818571      -0.23523659       0.98219513      -0.46297701
C       -0.16436531       1.99852648       3.92127907      -0.18172848      -0.05052847       0.16199594
C        2.31100353       3.98321400       2.58298865       1.07460244       0.43051214      -0.73009429
C        1.94272140       3.73048733       1.11768693      -0.06046490       0.16521853      -0.12756711
C        2.96751675       5.25907662      -0.50485468      -0.08192941       0.33717094      -0.20804462
C        4.18015651       5.44797901      -1.43328147      -0.00802759      -0.04205927       0.35555919
C        4.81820464       6.82979730      -1.26513143      -0.02976886      -0.12613545      -0.01794927
C        6.01939968       6.99169254      -2.19530400      -0.27181360      -0.00496350       0.03162449
C        5.26635679       6.97757908       0.19010385      -0.27575387       0.01448970      -0.12868423
C        3.64000181       3.82362531      -3.06194375       0.45122558      -0.80139719      -0.05389399
C        3.01669464       3.31032498      -4.38035353      -0.12347923      -0.27363653       0.16991795
C        1.49145410       3.43685896      -4.32162232       0.08909291      -0.13580893      -0.12023741
C        0.81521287       2.66637121      -5.45737394      -0.34268119       0.33077559       0.16098405
C        0.52668717       0.36257134      -4.78604769      -1.28854169       0.39077680       0.02921627
C        1.16741058      -0.90320497      -4.54819780       0.08071009      -1.06702311       0.44051936
C        1.52138038      -1.99970598      -4.19161977      -0.01980554       1.07387419      -0.41208586
C        2.11075556      -3.25686937      -3.73352545      -0.05312080      -0.59837581       0.14980529
C        3.36126785      -2.11800982      -1.96193668      -0.07561510       0.14425364       0.09674462
C        4.47498409      -2.63180206      -3.99963443      -0.03421293      -0.00043688      -0.02987521
C        1.14321785      -3.90644018      -2.72802412       0.00362713       0.14016577       0.03619438
C        2.26527887      -4.20185390      -4.93521822       0.01043792       0.10792344       0.04048539
C        2.66966916       1.16030403      -5.69642642       0.48758710      -0.01708770       0.08332855
C        3.46721532       1.86011479      -4.59605412      -0.14980234       0.06197380       0.04589417
C        2.99712502       6.17683793      -3.50158819      -0.38999701       0.30082051      -0.17030022
C        1.62652193       2.25954103       0.82366026      -0.28527853       0.27185997      -0.31732785
C        1.42592004       2.01263504      -0.68122890       0.42161192      -0.36463369       0.04205114
C        0.76871753       0.64539210      -0.90637940       0.28598100       0.28936704      -0.30070270
C       -1.34077397       1.69178028      -1.22444705       0.08142659       0.32953321      -0.14016728
C       -0.69899720       3.04667885      -0.94828748      -0.21950377      -0.02160540      -0.06880732
C        1.58440027       4.03769393       4.91293140       0.23145901      -0.12102329       0.02958077
C        1.36329867       2.77149878       5.73609947      -0.18101611       0.23467674      -0.05485552
C       -0.02842344       2.21744296       5.44113524       0.35582435      -0.14710068      -0.11400413
C       -2.07706932      -2.25146182       1.14160624      -0.02974256      -0.27878042      -0.45806668
C       -2.55543938      -2.96389838       0.01362480       0.29513084       0.69515945       0.04079699
C       -2.37048264      -2.48029183      -1.27813330      -0.07107253      -0.10462517      -0.11623466
C       -1.72371883      -1.27470551      -1.43632796       0.09506642       0.11277336      -0.15570079
C       -1.24603287      -0.56069456      -0.32719846       0.08804419       0.15134738       0.26067693
C       -1.39898744      -1.04982040       0.95222284      -0.00798016      -0.04947224      -0.16575464
F        3.49459744       4.06123394      -5.46951567       0.00599006       0.07745871      -0.09458726
H       -6.74152239      -4.23331394       4.09852251      -0.00933133       0.04080705       0.08946157
H       -7.90911554      -4.03678780       2.78998003      -0.03582315       0.05968433       0.00341278
H       -7.54134217      -5.65721266       3.41736738      -0.02519322       0.03985403       0.04118195
H       -5.60716778      -3.85509901       1.88105653      -0.08291933      -0.27421189       0.07351755
H       -7.36810668      -5.40035209      -0.74736303      -0.07172540       0.11604838      -0.01009208
H       -8.25650099      -4.67821861       0.61362720       0.02994017       0.01302938      -0.05257057
H       -6.84707077      -3.82843523      -0.07875475      -0.05380150      -0.06555546      -0.01838070
H       -4.66940095      -8.34097056       4.57924342       0.09635733      -0.05976402       0.06262484
H       -2.21806132      -7.84933874       4.42508081       0.02566434      -0.04390453       0.03197027
H       -1.50919750      -5.84755713       3.10870384       0.00854281       0.01265102      -0.00371678
H       -4.33593653      -5.78108571       0.12666046       0.12521907       0.23238941      -0.21684680
H       -4.05139205      -4.75193320      -1.28596256      -0.05278264      -0.08187838       0.16880009
H       -2.73495453      -6.84462758      -1.47492846       0.02717124      -0.09935927      -0.06893597
H       -1.64298440      -5.46286673      -1.29840688       0.06070607      -0.02179382      -0.02896740
H       -1.95925245      -6.52305810       0.07912369       0.02336561      -0.02896750       0.02013865
H       -2.05878889      -3.59486659       4.29794886       0.10083578       0.10803667       0.05121877
H       -1.09183621      -2.22169413       3.73542057       0.02480695      -0.12091824       0.11245001
H       -2.70906339      -2.56486669       6.37005470       0.00201821      -0.05442454       0.04708904
H       -1.63993019      -1.21728344       5.97198923       0.05835073       0.00063192       0.07524561
H       -3.32178773      -0.91110954       6.41483210      -0.02394204       0.05140574       0.07350616
H       -4.53565143      -3.25884795       4.70113270      -0.05327576      -0.05677561       0.01419916
H       -5.17131907      -1.62340598       4.91379226      -0.06609550       0.00934208       0.04277275
H       -4.83504282      -2.23602449       3.29465725      -0.08022398      -0.05503754      -0.02776570
H       -3.75864915       0.34802712       4.26109464       0.11235502      -0.13743338      -0.06506096
H       -3.28479700      -0.36903358       2.71088838       0.05920611       0.03227278       0.20960663
H        0.53479574       1.21868935       3.60411443      -0.10478656       0.12145398       0.05540945
H       -0.63071395       3.88302287       3.29648386       0.23198716      -0.14162103      -0.03122505
H        1.08340481       4.36173304       0.86830380       0.18408052      -0.21519356       0.03330031
H        3.85945421       3.60305842       0.26602612      -0.12665268       0.28245821      -0.17606144
H        4.93465985       4.69071176      -1.19924780      -0.18087510       0.24472787      -0.03753228
H        4.06728743       7.59929143      -1.46470136       0.08888702      -0.12386596       0.00709994
H        6.42856191       7.99343386      -2.10143801       0.07174841       0.05391452      -0.02204342
H        6.79407469       6.27712736      -1.92479993       0.07339995      -0.04190556      -0.00285694
H        5.75378532       6.82101096      -3.23463027       0.03474601       0.00438236      -0.08037423
H        5.68926556       7.96491161       0.34864577       0.05587493       0.04743939       0.07067478
H        4.42740301       6.84719578       0.87049934       0.05794679       0.04141651       0.06287194
H        6.02020375       6.23350110       0.43565222       0.06886544      -0.04332314       0.02467073
H        1.15994086       3.04614807      -3.35883981      -0.02815511       0.04336936      -0.16221006
H        1.19758452       4.48190815      -4.37387908       0.04590239       0.01024474       0.07114881
H        1.08091341       3.10119811      -6.42414648      -0.07918266      -0.08157895       0.06091321
H       -0.26830303       2.68624229      -5.33004176       0.23388356       0.00911455      -0.08223353
H        3.12303400      -1.08177276      -2.25279057       0.01038119      -0.15461185       0.03470214
H        2.62092165      -2.45346591      -1.24109690       0.04191281       0.08720902       0.01514392
H        4.33559624      -2.11990484      -1.47527477      -0.05288581       0.01397498       0.01458903
H        4.67740237      -3.42696374      -4.71096536       0.05458369       0.08526271      -0.05676633
H        4.24744394      -1.70320217      -4.54492396       0.02054943      -0.07683924       0.01905195
H        5.37788266      -2.46796968      -3.41426082      -0.00438500      -0.00197445      -0.04614976
H        0.76920915      -3.18701243      -2.00249811       0.01475369      -0.05623164      -0.02647804
H        0.28593980      -4.31176887      -3.25876005      -0.03365850       0.01771630       0.01048704
H        1.65769771      -4.70946211      -2.20975418       0.03335080      -0.08563791       0.01215776
H        1.28309309      -4.50655435      -5.28575645      -0.00293637       0.01915862      -0.00923008
H        2.77888905      -3.71835210      -5.76109860       0.01975063      -0.02821063       0.00468193
H        2.82059913      -5.08233187      -4.62495156       0.02981098      -0.05102481       0.01682746
H        2.93607163       0.10426971      -5.73741771      -0.00961739       0.24029747      -0.09728808
H        2.87997753       1.62461060      -6.66326878      -0.05866785      -0.15548305       0.03415289
H        4.52993510       1.86077082      -4.83942562      -0.04223633      -0.01177301       0.11720476
H        3.33524964       1.33147304      -3.65098626       0.04900365       0.04390897      -0.17163208
H        2.04287953       6.38007874      -3.00654853       0.13210831       0.06216150      -0.12908824
H        3.59219834       7.08641532      -3.48592457      -0.06128414      -0.06801982      -0.03898302
H        2.83787355       5.89991421      -4.53663253       0.06115993       0.01421365       0.13563883
H        2.45001004       1.63124647       1.16303546       0.00297921      -0.08250108       0.05595891
H        0.71334551       1.97913061       1.34272583       0.28002318      -0.03345653       0.01473017
H        2.39406477       2.04642154      -1.19286201      -0.34384748      -0.11317802       0.18830484
H        1.29969201      -0.11697352      -0.33492438       0.00418210       0.04892526      -0.06616876
H        0.82690736       0.38137761      -1.97899678       0.03893464       0.01944950       0.25703783
H       -1.31079299       1.47935113      -2.30690204      -0.03997111       0.07201325       0.24661851
H       -2.38052358       1.69802720      -0.89206934       0.10158602       0.03412511      -0.02785241
H       -0.81476360       3.28769871       0.11479920      -0.01152636       0.04023264      -0.09841707
H       -1.15301031       3.83488912      -1.55208310      -0.00126746      -0.11703764       0.14009555
H        2.60467788       4.40836035       5.00652642      -0.22901972      -0.02264217      -0.00077322
H        0.88463865       4.82008675       5.22486561       0.04795713      -0.02860518       0.01499833
H        1.46101782       3.00446645       6.79514784       0.05274867      -0.03885390       0.01217837
H        2.11901255       2.03163662       5.47047321       0.01941497       0.04174216       0.05577418
H       -0.79083554       2.92910423       5.76773848      -0.01165184      -0.06607363      -0.03030254
H       -0.18944098       1.27360280       5.95965304      -0.06453885       0.03133185       0.00134268
H       -2.72178473      -3.02576191      -2.14047639      -0.00852476      -0.02573715      -0.04756381
H       -1.57130512      -0.87359673      -2.42836191       0.02204116       0.01916320      -0.01866171
H       -0.98973950      -0.49192813       1.77736246      -0.01395449       0.06169331      -0.01684122
