151
Properties=species:S:1:pos:R:3:MACE_forces:R:3 energy:=T -221.337424376936=T gnorm:=T 0.008141973072=T xtb:=T 6.7.1=T (edcfbbe)=T MACE_energy=-90873.53560966483 pbc="F F F"
C       -6.90119131      -4.73875124       2.87960369       0.13688179      -0.06929945      -0.36790268
N       -5.02093720      -6.83134110       3.07436055      -0.31190264       0.03616015      -0.00194096
O       -6.17870955      -5.51530448       0.66133719       0.03574287      -0.08147788       0.20528338
C       -5.76370468      -4.87827800       1.86839240      -0.08012301       0.21190521       0.05526902
N       -3.00008666      -4.04550792       0.22344834      -0.25355550      -0.04237098       0.27088835
O       -1.60021636       0.16926388       3.91868653       0.14360600      -0.73072275       0.13893189
C       -6.96779472      -4.71023634      -0.18664423       0.12237292       0.00532730       0.13553846
N        0.01228493       3.26531347       3.33208088      -0.44619402       0.27975536       0.05761930
O       -0.47139166       0.52809160      -4.40170878       0.85203078      -0.00350715      -0.23749396
C       -4.64592698      -5.72936324       2.44098331       0.23764129       0.26083801      -0.20678355
N        1.20849582       3.90562724       3.66933595      -0.66865087      -0.19525242       0.92103763
O        4.06141345       3.23510100      -2.07715911      -0.18234126       0.23905126      -0.39143084
C       -4.10189096      -7.62006786       3.60159072       0.13008662      -0.18412609       0.11094319
N        2.88334361       4.44856661       0.45671688       0.00080808      -0.61680552       0.48068662
O        1.83004674       6.25901139      -0.39154004       0.29790474      -0.09855576      -0.00650208
C       -2.74406126      -7.34451624       3.54925723      -0.01172471       0.03493867      -0.03873053
N        3.57999397       5.35666997      -2.60927514       0.23298308       0.34268263       0.02706586
O        0.65249284       3.27065707      -1.19512149      -0.00358659      -0.08492458       0.12407412
C       -2.34267759      -6.19828532       2.88856476      -0.16163698      -0.04513174      -0.00740016
N        1.41774697       1.38797675      -5.33011554       0.03055482       0.17353477      -0.20484752
O        3.18254436       4.77876526       3.06178169      -0.42722912      -0.36930373       0.00907276
C       -3.29821884      -5.36778865       2.30379109      -0.04871330      -0.28975828       0.16515345
N        2.58691850      -3.34557648      -2.57517422       0.05656994       0.03005631      -0.03156435
O       -2.51452914       2.18641309       3.57137069       0.48424253      -0.31806160       0.10332109
C       -2.84927565      -4.16860399       1.58848211       0.13848270       0.24190262       0.28979235
N       -0.60632716       0.88700557      -0.45492278      -0.16800875      -0.24352633      -0.03210122
C       -3.37842325      -5.10158436      -0.68270290       0.11687872      -0.47959781      -0.22985595
C       -2.15016737      -5.86015607      -1.18222624      -0.14984216       0.14693469      -0.01030026
C       -2.20643573      -3.06415571       2.10089460      -0.08929825      -0.31297110       0.04541216
C       -1.83460671      -2.78929233       3.52255358      -0.14016801       0.00154870       0.03989768
C       -2.82189157      -1.90438136       4.31964639       0.19126742       0.23447208       0.07881934
C       -2.35745853      -1.84849027       5.77796363      -0.00254431       0.05622127      -0.24732102
C       -4.23252258      -2.48650677       4.25259027       0.21221160       0.18257998      -0.07756649
C       -2.87474628      -0.48088171       3.75194239      -0.56404788      -0.07808814      -0.02853080
C       -1.55671200       1.47998783       3.80311771      -0.34793459       1.04300868      -0.31510379
C       -0.15998712       2.01714894       4.07172096      -0.17704791      -0.07723629       0.13097320
C        2.12749785       4.23700869       2.74887024       1.05151551       0.57829659      -0.70583735
C        1.79241416       3.96762914       1.27845373      -0.10940271       0.17487069      -0.15442123
C        2.80369984       5.51643021      -0.34121612      -0.13259726       0.38823995      -0.19670840
C        4.02605673       5.71538531      -1.25569009      -0.02773535      -0.02756914       0.35750862
C        4.62420504       7.11905615      -1.11984094      -0.02876781      -0.14597623      -0.00602475
C        5.88634930       7.25211828      -1.97094265      -0.28025498       0.03100986       0.03245618
C        4.96300815       7.36457308       0.35079808      -0.24270630      -0.00310409      -0.11618246
C        3.59901206       4.04826776      -2.88438043       0.51694113      -0.83732605       0.16716176
C        3.03558537       3.49770786      -4.21199334      -0.15888256      -0.32061416       0.17136843
C        1.50388573       3.53783495      -4.19258513       0.10443691      -0.08904949      -0.08715364
C        0.89804585       2.73524960      -5.34525936      -0.34855388       0.34886480       0.12065307
C        0.70702038       0.40008738      -4.75842525      -1.26150025       0.18525014       0.15407941
C        1.37961036      -0.86155918      -4.58548972       0.03838426      -1.06358367       0.39959175
C        1.73619543      -1.97487911      -4.29436524       0.02420286       0.94544846      -0.35036740
C        2.26431486      -3.30802409      -4.00885693       0.06411089      -0.23238608      -0.07339733
C        1.44027539      -3.12627186      -1.71677825      -0.15807109       0.11997076       0.09788255
C        3.34083975      -4.50496752      -2.14322336       0.04668334       0.07267551      -0.04303419
C        1.20102956      -4.33626661      -4.44926533       0.04107490       0.04399578       0.14598729
C        3.53339004      -3.48605432      -4.85628003      -0.11400267      -0.02849910       0.04498713
C        2.84417231       1.33762090      -5.54620548       0.48917468       0.00420520       0.07667007
C        3.56055509       2.06948544      -4.41118535      -0.15455117       0.11797189       0.03361069
C        2.90810628       6.38955331      -3.36887066      -0.34377277       0.25046500      -0.15032010
C        1.52282585       2.49003753       0.97110386      -0.26104883       0.23430608      -0.36462679
C        1.39946492       2.25173139      -0.54328260       0.43460227      -0.43113355       0.07618017
C        0.79537020       0.86871444      -0.81905468       0.32218356       0.28768231      -0.29275623
C       -1.31970216       1.86342469      -1.25619117       0.09333553       0.39332000      -0.05970812
C       -0.73483110       3.22814753      -0.90751311      -0.25109556      -0.04992188      -0.10724117
C        1.41559110       4.18666507       5.08331750       0.28307280      -0.09106091       0.03947063
C        1.33881649       2.88376978       5.87450199      -0.20648849       0.21003733      -0.04252693
C        0.00056676       2.20187934       5.59373462       0.35894740      -0.12449203      -0.09829823
C       -1.92916784      -2.21499455       0.98909333      -0.02109319      -0.27414260      -0.51906270
C       -2.43603876      -2.86324293      -0.16509247       0.24908196       0.65728229       0.08657811
C       -2.33083734      -2.28461142      -1.42475358      -0.04078453      -0.05533895      -0.10327226
C       -1.72434112      -1.05122325      -1.52422662       0.05401078       0.12934095      -0.18457264
C       -1.20979806      -0.40357052      -0.39170691       0.02135472       0.08499133       0.28527490
C       -1.29236703      -0.98429062       0.85727108       0.01595773      -0.03379333      -0.18506519
F        3.50281789       4.27183848      -5.28743434       0.00746184       0.09179919      -0.14694286
H       -7.32577851      -5.71930097       3.07026976      -0.02937070       0.02463173       0.04764535
H       -6.51156615      -4.33065142       3.80685672      -0.01879581       0.03565340       0.08509908
H       -7.67308424      -4.07355304       2.50140189      -0.02430078       0.04942103       0.00495565
H       -5.36366314      -3.88275615       1.61436738      -0.09013769      -0.28669676       0.06648535
H       -6.47041715      -3.75420081      -0.39027893      -0.05884195      -0.06038441      -0.02114743
H       -7.07463515      -5.27144872      -1.11123026      -0.08031226       0.11247990      -0.03953037
H       -7.95599385      -4.51888562       0.23808216       0.01722291       0.01695071      -0.04698140
H       -4.47837090      -8.50766750       4.09266761       0.09557786      -0.04269122       0.04945830
H       -2.02776601      -8.01027128       4.00340784       0.02379214      -0.03656872       0.02295288
H       -1.29646301      -5.94314243       2.80342206       0.01957225       0.01781118      -0.00511343
H       -4.05870688      -5.78260421      -0.16898368       0.09655339       0.25699546      -0.21996981
H       -3.91092349      -4.65559547      -1.52608170      -0.03965651      -0.08312805       0.16487545
H       -1.63987616      -6.33998216      -0.35040862       0.02464941      -0.02559375       0.01624716
H       -2.44675281      -6.62162295      -1.89793091       0.02617718      -0.07211383      -0.04917072
H       -1.45763406      -5.17343816      -1.66564266       0.03728881      -0.04212384      -0.01769074
H       -1.74256550      -3.73801812       4.05630285       0.07998993       0.12208215       0.03284496
H       -0.86187467      -2.29344491       3.53133214       0.02124660      -0.14068256       0.10873362
H       -3.00969079      -1.20074109       6.35969032      -0.02150760       0.03866463       0.07528719
H       -2.37869664      -2.84172422       6.21631925       0.00365280      -0.08625621       0.04849382
H       -1.34307270      -1.46325697       5.83709535       0.04018155      -0.00232529       0.07690997
H       -4.60842702      -2.45189903       3.23444290      -0.09537365      -0.04777125      -0.04670761
H       -4.22239661      -3.52179689       4.58256728      -0.04661375      -0.06760604       0.00402559
H       -4.91059514      -1.92496713       4.88972478      -0.07538811       0.02055646       0.05149293
H       -3.63406557       0.11632081       4.26803526       0.15908601      -0.15853670      -0.08418969
H       -3.11360239      -0.49236024       2.68431021       0.03356844       0.03634532       0.23414119
H        0.58014393       1.29679321       3.71198104      -0.08955649       0.12414566       0.05470378
H       -0.78692778       3.87362300       3.52127824       0.27814801      -0.15986561      -0.06748977
H        0.91906071       4.57478408       1.01519546       0.19976022      -0.19687145       0.03925602
H        3.71392439       3.87639716       0.43853068      -0.11533199       0.29347822      -0.17589698
H        4.79461547       4.98502901      -0.98633272      -0.16705297       0.23678642      -0.04982222
H        3.87807045       7.85907266      -1.42073597       0.08479123      -0.10725072       0.03219344
H        5.70124128       7.01258746      -3.01333014       0.02591333      -0.01271967      -0.10692243
H        6.26488297       8.26926945      -1.91136230       0.07764405       0.02449558      -0.02408388
H        6.65357408       6.57479538      -1.60263368       0.08611724      -0.03720040       0.01846344
H        5.67400391       6.62471653       0.71139382       0.07172278      -0.03440978       0.01727800
H        5.40007289       8.35145229       0.47005296       0.04405175       0.05033842       0.06566782
H        4.07097948       7.30381905       0.97022461       0.04397187       0.04145230       0.05562555
H        1.17300171       3.12804144      -3.23765125      -0.01476212       0.04271967      -0.20175560
H        1.14787677       4.56497693      -4.24705475       0.05816149      -0.03306413       0.08517998
H        1.15033019       3.19687499      -6.30474365      -0.06764757      -0.10239159       0.08828806
H       -0.18672435       2.68843781      -5.23573790       0.23560137       0.02441609      -0.08550920
H        0.78757805      -4.00802888      -1.62943432       0.01090101       0.07620415      -0.02826358
H        1.79690547      -2.87155317      -0.71878076      -0.08790623      -0.02190789      -0.03636623
H        0.84704834      -2.29160140      -2.08772089       0.01208754      -0.12467880       0.15566262
H        2.82080654      -5.45836171      -2.31573646       0.03855295       0.00905948       0.00980875
H        4.30760397      -4.52704220      -2.63946840      -0.00472170      -0.12715152       0.05311061
H        3.51377980      -4.40642181      -1.07191143       0.03124446      -0.05743831      -0.06946566
H        1.51351491      -5.33937987      -4.17156343       0.01536345      -0.06583328      -0.00205898
H        0.24142898      -4.12013824      -3.98546797       0.00002715      -0.04656958      -0.00135594
H        1.07797062      -4.29648371      -5.52770931      -0.02118253       0.01050410      -0.05739574
H        3.86062803      -4.52136262      -4.84748874       0.03813605      -0.06084270       0.01385269
H        3.32027837      -3.20416587      -5.88406178       0.00439504      -0.03639710      -0.00116511
H        4.32586907      -2.84969219      -4.47483462       0.03691186       0.02478313       0.02975157
H        3.17198182       0.29823677      -5.58440303      -0.02980492       0.26410103      -0.08584731
H        3.06001377       1.82298169      -6.50222466      -0.03860220      -0.16450704       0.04862098
H        4.63056290       2.11968733      -4.60665899      -0.00434285      -0.01740383       0.09598785
H        3.41074875       1.53069184      -3.47538940       0.05953440       0.04355654      -0.14400474
H        2.03762642       6.73525624      -2.80508414       0.10302860       0.01752928      -0.12178898
H        3.58354524       7.22758494      -3.52342104      -0.06346701      -0.01691846      -0.04293363
H        2.60114056       6.02617182      -4.33995456       0.09274002       0.02052905       0.09214093
H        2.34986464       1.88446927       1.34150952      -0.00005981      -0.10271273       0.05591748
H        0.59836412       2.18074301       1.45214118       0.28318182      -0.01887899      -0.01231666
H        2.38991107       2.31106661      -1.00782682      -0.36440313      -0.10120749       0.17005273
H        1.31031713       0.11571864      -0.22022578      -0.00171864       0.07233142      -0.06333092
H        0.93292185       0.61352725      -1.88744854       0.00222710       0.03088501       0.26969620
H       -1.21784709       1.68422145      -2.33939315      -0.05167244       0.02871582       0.19201837
H       -2.37600384       1.83196757      -0.98542256       0.06697600       0.04387151      -0.05415081
H       -0.91450835       3.43291368       0.15352457      -0.01195740       0.05401327      -0.06755320
H       -1.18066694       4.02041794      -1.51117304      -0.00563434      -0.10127166       0.12272060
H        2.39113256       4.66355042       5.18108426      -0.24428606      -0.06703685      -0.01560928
H        0.63785541       4.88232873       5.41771890       0.06340587      -0.03929632      -0.00129419
H        1.43936041       3.09549814       6.93798929       0.04634214      -0.03944724       0.00483941
H        2.15762695       2.23004875       5.57062656       0.00502805       0.05358760       0.06112826
H       -0.82021334       2.81869543       5.96840306       0.00892809      -0.06323029      -0.04760778
H       -0.04468087       1.22955856       6.08428896      -0.08647868       0.04008810      -0.01412059
H       -2.71269277      -2.77267455      -2.30815513      -0.00931046      -0.04216550      -0.04399515
H       -1.62721498      -0.58028178      -2.49221937       0.02475601      -0.01317677       0.00028484
H       -0.86509477      -0.47260043       1.70442026      -0.02895155       0.06290753      -0.02563720
