151
Properties=species:S:1:pos:R:3:MACE_forces:R:3 energy:=T -221.338650176372=T gnorm:=T 0.005288051262=T xtb:=T 6.7.1=T (edcfbbe)=T MACE_energy=-90873.54165863922 pbc="F F F"
C       -7.01702210      -4.68887646       2.68814328       0.16925956      -0.13426347      -0.32371341
N       -5.16610361      -6.71862105       3.35857256      -0.31967589       0.02543222      -0.03865290
O       -6.08572162      -5.83677153       0.71620203       0.00699963      -0.03169246       0.22429894
C       -5.79306067      -4.98117563       1.82011987      -0.07900382       0.19172790      -0.02158738
N       -2.81901249      -4.19688150       0.45849802      -0.27942360      -0.04690388       0.21794789
O       -1.90433853       0.37483057       3.79665434       0.19653541      -0.64987047       0.27791090
C       -6.97463016      -5.29589867      -0.23644653       0.08529862       0.01045078       0.10982734
N       -0.22123810       3.42040829       3.20013416      -0.40280747       0.23687260      -0.03187005
O       -0.23955380       0.56077695      -4.37479812       0.78684150      -0.04281270      -0.30690148
C       -4.73141150      -5.69850353       2.63125048       0.25593216       0.22602406      -0.19669805
N        0.92574945       4.07378423       3.66375725      -0.80611374      -0.07657358       0.79255658
O        4.25387732       3.09271356      -2.07521807      -0.23668012       0.25420186      -0.27298861
C       -4.31321061      -7.39925757       4.10065453       0.14659760      -0.14280840       0.12460270
N        2.99086253       4.34042628       0.66163721       0.01429424      -0.56097381       0.43004010
O        1.97748445       6.09536523      -0.32528712       0.31942859      -0.09535514      -0.02037590
C       -2.96271004      -7.09177270       4.17789940      -0.03211258       0.03755179      -0.04328823
N        3.78058621       5.25693759      -2.44899372       0.29367162       0.32113678       0.14403647
O        0.96660393       3.02123379      -1.13105088      -0.01187484      -0.09823517       0.12090166
C       -2.50010269      -6.03049566       3.42414151      -0.15484250      -0.05955175      -0.03354990
N        1.57981155       1.48568621      -5.37788942       0.04386014       0.20369979      -0.22331411
O        3.00651749       4.82618830       3.27418177      -0.48432952      -0.36895453      -0.02786537
C       -3.38462891      -5.31224952       2.61690526      -0.04804502      -0.29662972       0.20331527
N        1.82272147      -4.07972022      -3.60773043       0.13405826      -0.09312450      -0.04243187
O       -2.78723496       2.33911382       3.17189220       0.46923698      -0.26928234       0.17978156
C       -2.84622897      -4.19263759       1.83754313       0.11704264       0.29870193       0.26611960
N       -0.31074451       0.66374531      -0.33575744      -0.15195229      -0.24758585      -0.06499810
C       -3.14514982      -5.31462257      -0.39231803       0.12401900      -0.48778404      -0.17381241
C       -1.91852802      -6.18579129      -0.65564589      -0.15030928       0.16026915      -0.02221899
C       -2.24276690      -3.05309620       2.32158788      -0.11628111      -0.29543273       0.05520799
C       -2.08318653      -2.61959653       3.74275347      -0.17804813       0.00898915      -0.03228394
C       -3.17492038      -1.65414488       4.26236435       0.15092356       0.25434211       0.07300188
C       -2.94416290      -1.41883807       5.75755728       0.03651172       0.01398781      -0.24680348
C       -4.56224288      -2.25527316       4.04362351       0.21989875       0.17235770      -0.05283982
C       -3.13542174      -0.30934935       3.52551243      -0.66740477      -0.16895408      -0.11134894
C       -1.86464072       1.67509275       3.59295476      -0.26791207       0.99461803      -0.45474425
C       -0.53461536       2.26225541       4.03192802      -0.20532178      -0.08606041       0.16103526
C        1.98307253       4.28613875       2.86628720       1.18076943       0.42332974      -0.60669158
C        1.83087530       3.88844481       1.39592726      -0.06140348       0.19017556      -0.17803308
C        2.95148024       5.36274592      -0.19693966      -0.15367322       0.33807198      -0.17245780
C        4.20512175       5.51295371      -1.06742375       0.03096488      -0.02057790       0.27401073
C        4.91104462       6.85063362      -0.82099087      -0.01355368      -0.10626149      -0.02215265
C        6.08454820       7.03043288      -1.78106895      -0.28153149       0.03128381       0.04902735
C        5.40614861       6.85765332       0.62631298      -0.26008043       0.08315087      -0.11731804
C        3.79705359       3.96763413      -2.81517181       0.50238392      -0.83525695       0.02719080
C        3.23626261       3.52500736      -4.18679839      -0.08841369      -0.27823580       0.14846363
C        1.70613455       3.59723125      -4.15830934       0.00977274      -0.11854374      -0.11118912
C        1.05352545       2.82849136      -5.31081692      -0.34050105       0.31773547       0.19398884
C        0.91653690       0.46641246      -4.80193669      -1.21897386       0.29162187       0.22444584
C        1.62045504      -0.78501014      -4.72198321       0.37983748      -1.05926312       0.31711194
C        2.12603916      -1.86769694      -4.56643544      -0.53529902       0.98044068      -0.13767212
C        2.69701777      -3.20380454      -4.40512051       0.38309153      -0.48045889      -0.07807992
C        0.49394510      -4.24551596      -4.16762860      -0.14496434       0.08292474      -0.04247733
C        1.71833680      -3.70584167      -2.20844690      -0.01481644       0.13205268       0.10789998
C        2.90693321      -3.81315998      -5.80353411      -0.11224783       0.03966782       0.06426193
C        4.07441602      -3.06344550      -3.73703048      -0.12659773       0.03692275       0.05603820
C        2.99621926       1.46703104      -5.65620037       0.51323950      -0.01492807       0.06707752
C        3.75008599       2.11423521      -4.49504940      -0.14423831       0.06551706       0.04333608
C        3.05199219       6.30799403      -3.12916026      -0.36729852       0.24612099      -0.23546862
C        1.63299806       2.38777991       1.15641630      -0.26099131       0.20981295      -0.35725771
C        1.66762095       2.06158258      -0.34943004       0.41942132      -0.36028073       0.10900259
C        1.11257992       0.65483879      -0.60531352       0.27993641       0.30175289      -0.24314564
C       -0.98451585       1.57992159      -1.23823778       0.08316748       0.35513768      -0.19844556
C       -0.43980776       2.97518730      -0.95145677      -0.23415541      -0.06513760      -0.05961557
C        0.90562828       4.51883788       5.04944314       0.24189933      -0.10966580       0.08728786
C        0.63288318       3.32958819       5.96706933      -0.16138674       0.19871412      -0.10299044
C       -0.64993506       2.62772787       5.52567606       0.36548969      -0.11295267      -0.06207593
C       -1.80504624      -2.31967319       1.18147508       0.04501535      -0.31000092      -0.43442349
C       -2.17951381      -3.06567771       0.03724037       0.25456430       0.69781368       0.05411020
C       -1.91093582      -2.59606616      -1.24459418      -0.03159181      -0.10251095      -0.14815285
C       -1.28946702      -1.37303785      -1.37194507       0.09471549       0.15159260      -0.18088933
C       -0.90810144      -0.62902174      -0.24441919       0.02366981       0.08897520       0.26346768
C       -1.13634884      -1.10836051       1.02722004      -0.00465821      -0.08316172      -0.15135181
F        3.71729303       4.37175213      -5.20227373      -0.02000989       0.06114400      -0.11389705
H       -7.45421221      -5.62801533       3.01339903      -0.03159317       0.03131034       0.01876215
H       -6.71200925      -4.11749834       3.55896637      -0.02748220       0.04755981       0.06273814
H       -7.75250494      -4.11296983       2.13366295      -0.04213344       0.05652848       0.00324374
H       -5.38176167      -4.03543779       1.42803699      -0.07707511      -0.26749914       0.11784647
H       -6.90902052      -5.94653844      -1.10574459      -0.09215673       0.10147175      -0.02991096
H       -8.00452170      -5.28630191       0.13022322       0.04995802       0.02832987      -0.04988749
H       -6.67840172      -4.27834440      -0.51487929      -0.03803042      -0.04822237      -0.02581724
H       -4.73691899      -8.22155531       4.66073365       0.07813082      -0.05274968       0.07205479
H       -2.29983547      -7.66754263       4.80286364       0.03361762      -0.04141967       0.04073747
H       -1.45610005      -5.75382375       3.43749298       0.02051775       0.01441085      -0.00543975
H       -3.92975091      -5.90735464       0.08100125       0.13328337       0.23047034      -0.21911483
H       -3.53243292      -4.92099675      -1.33549465      -0.07188039      -0.07559673       0.17216719
H       -1.12839428      -5.59425763      -1.11349143       0.04175401      -0.02994079      -0.01381903
H       -1.54453337      -6.60243536       0.27654099       0.01873967      -0.02484820       0.02333882
H       -2.18101193      -7.00121113      -1.32277735       0.03681183      -0.09428601      -0.05728439
H       -2.09239977      -3.49812697       4.38944236       0.08682737       0.09281606       0.06113885
H       -1.11746771      -2.12287048       3.84655239       0.01991374      -0.11159456       0.12447844
H       -1.94349252      -1.03119921       5.92962213       0.02537302       0.01115881       0.07831805
H       -3.66535304      -0.70327947       6.14537626      -0.04362015       0.05312228       0.07521799
H       -3.05517577      -2.35101258       6.30411484       0.00178704      -0.06570874       0.05638395
H       -4.61624219      -3.23994852       4.50035166      -0.05216285      -0.05531172       0.00528231
H       -5.32771214      -1.62195058       4.48527311      -0.07582782       0.00769988       0.03830494
H       -4.76841588      -2.35430413       2.98156985      -0.08566909      -0.05521340      -0.03555805
H       -3.96173444       0.33215674       3.84945151       0.15466931      -0.17318047      -0.03536851
H       -3.21969337      -0.45349942       2.44417819       0.01705103       0.07439890       0.23044280
H        0.25515507       1.51763049       3.89641194      -0.11192078       0.14057499       0.02079399
H       -1.02159306       4.05605523       3.20171742       0.26660407      -0.16035059      -0.02090082
H        0.98229499       4.45361151       0.99331478       0.21449016      -0.23231868       0.07255635
H        3.83169031       3.79141436       0.75219156      -0.11412843       0.24095307      -0.18977210
H        4.90815705       4.71000254      -0.82600700      -0.17608959       0.27373733      -0.04021212
H        4.19217346       7.66732389      -0.93534608       0.07898448      -0.13164064      -0.00975268
H        5.75800587       7.03239011      -2.81694494       0.03872775       0.00397823      -0.08087079
H        6.59139724       7.96870442      -1.57494636       0.07445902       0.04948635      -0.02183380
H        6.79522413       6.21737957      -1.65154527       0.08598967      -0.05653775      -0.01072892
H        4.58303625       6.70128136       1.32110325       0.06948880       0.01981283       0.06925945
H        6.13784502       6.06774574       0.78048863       0.06744516      -0.05000136       0.02722302
H        5.87449843       7.81006487       0.85609144       0.05384406       0.03594611       0.06782849
H        1.37784411       3.18789892      -3.20166293      -0.01886157       0.03168290      -0.16796411
H        1.38756182       4.63563952      -4.21129878       0.04162904      -0.01219594       0.07771208
H        1.25806614       3.32656139      -6.26243873      -0.06509902      -0.08937769       0.06363305
H       -0.02467286       2.77179452      -5.15172530       0.22775519       0.03221201      -0.10087469
H       -0.09372289      -3.31169834      -4.15868395       0.09970954      -0.15665515      -0.00778357
H        0.55364915      -4.61378176      -5.18724067      -0.07599859       0.00877310       0.01309149
H       -0.03438175      -4.98981184      -3.57117125       0.00570541       0.05955677      -0.05986520
H        1.07580263      -4.43152861      -1.71259796       0.01852085       0.06176104       0.03392292
H        2.69307083      -3.74538321      -1.73185672      -0.04397532       0.02263296       0.05175231
H        1.28032324      -2.70627270      -2.05879176       0.06309376      -0.11372805      -0.01174320
H        3.71067222      -3.29014993      -6.31368821       0.00871504       0.02952740      -0.01899834
H        3.17351204      -4.85988774      -5.69315322       0.02971556      -0.05931480       0.00885807
H        2.01429857      -3.73073252      -6.41713310       0.02494600      -0.02068079       0.01494243
H        4.02307078      -2.45482533      -2.83821415       0.01188107      -0.04333480      -0.00403506
H        4.45118057      -4.05049693      -3.48766665       0.03689082      -0.07133077       0.01942976
H        4.76384591      -2.58199785      -4.42515630      -0.00417931       0.00635848      -0.01094530
H        3.33118453       0.43889175      -5.79486427      -0.02709936       0.26713560      -0.06716530
H        3.16799463       2.03305463      -6.57548064      -0.04620982      -0.17521415       0.02058538
H        4.81455647       2.17519592      -4.72147117      -0.03180923      -0.00814348       0.12070599
H        3.62633789       1.51302334      -3.59371953       0.05751991       0.06158195      -0.15770513
H        3.13904704       6.20471563      -4.20521265       0.00078987      -0.00193881       0.14028731
H        2.00386732       6.29923412      -2.82269352       0.12660710       0.11035843      -0.07095224
H        3.47086024       7.26691931      -2.84174735      -0.03061315      -0.04699627      -0.05700256
H        2.42967513       1.82784535       1.64643060      -0.00672466      -0.07828933       0.04919109
H        0.67064104       2.07839676       1.55671640       0.26393677      -0.01348086       0.06630938
H        2.69429225       2.12280966      -0.72725216      -0.30802800      -0.08519815       0.13581024
H        1.59730251      -0.06230038       0.05850109       0.00015689       0.05136453      -0.06439457
H        1.32704763       0.36642136      -1.65219831      -0.00585810       0.01638661       0.22164465
H       -0.81828254       1.33029497      -2.29959987      -0.08126672       0.08207460       0.26739573
H       -2.05590292       1.55262567      -1.03294140       0.09052079       0.03884450      -0.02376944
H       -0.70575915       3.26187802       0.07239487      -0.00233009       0.03843918      -0.09581461
H       -0.84543290       3.70914068      -1.64985042      -0.02008622      -0.09469814       0.12905761
H        1.87288636       4.97558399       5.25716373      -0.21978140      -0.04468265      -0.04093552
H        0.11843659       5.27276104       5.15853260       0.05217549      -0.02787025       0.02797879
H        0.53726542       3.67861639       6.99398454       0.05308302      -0.03969631       0.02749938
H        1.47060480       2.63358934       5.91204631       0.00616683       0.05185446       0.04974850
H       -1.50803146       3.29058518       5.66226114       0.01005454      -0.07200117      -0.03147044
H       -0.81461062       1.72315814       6.10987519      -0.07222282       0.02053758      -0.01115495
H       -2.18412513      -3.15870790      -2.12454483       0.00057545      -0.02350187      -0.03305450
H       -1.08898341      -0.97476537      -2.35740232       0.01833999       0.00193165      -0.01782969
H       -0.80798258      -0.53251020       1.87687135      -0.02686675       0.07373250      -0.04917606
