151
Properties=species:S:1:pos:R:3:MACE_forces:R:3 energy:=T -221.336885733592=T gnorm:=T 0.005639683334=T xtb:=T 6.7.1=T (edcfbbe)=T MACE_energy=-90873.49139209976 pbc="F F F"
C       -7.00109283      -4.84768779       2.52770464       0.20306355      -0.15197468      -0.31690752
N       -5.05591259      -6.74970063       3.32947158      -0.31132535       0.00205940      -0.02400988
O       -5.94441539      -6.01125855       0.63267450      -0.02234768      -0.04158736       0.21571535
C       -5.73385202      -5.10148969       1.71157634      -0.08721589       0.19545493      -0.00170304
N       -2.83469051      -4.15476916       0.39814792      -0.29087425      -0.05566266       0.19748125
O       -2.07331895       0.41646211       3.78525088       0.14848276      -0.58752749       0.27979614
C       -6.72700460      -5.50488568      -0.42558494       0.11246267       0.01840745       0.13234286
N       -0.27337764       3.39960812       3.07466142      -0.37488974       0.28541660      -0.04000376
O       -0.41812989       1.15058782      -4.74266782       0.79086624      -0.17416496       0.01991222
C       -4.66026221      -5.73349391       2.57655493       0.25820057       0.24347988      -0.21901618
N        0.90361467       4.01109622       3.52270095      -0.82954633      -0.07873827       0.83590765
O        4.30625469       2.92486308      -1.78556962      -0.01473024       0.30353466      -0.43940568
C       -4.18057033      -7.36213590       4.10564132       0.12896802      -0.13476733       0.12110232
N        3.06552549       4.24214397       0.57774557      -0.10574853      -0.59572464       0.41223474
O        2.35742221       6.12832453      -0.44406699       0.31468882      -0.11795282       0.05675166
C       -2.84707997      -6.99061617       4.18505201      -0.01672377       0.04630037      -0.04911252
N        4.33243018       5.09721432      -2.33621711       0.35744203       0.32400291       0.11672762
O        0.58295554       3.23105037      -1.25382941      -0.02156482      -0.08701585       0.10933276
C       -2.42464106      -5.93164262       3.40364490      -0.15087016      -0.08730988      -0.02880636
N        1.71318557       1.65667578      -5.35104083       0.19166741       0.20051229      -0.18973519
O        2.99621887       4.72175737       3.15206490      -0.48938269      -0.32199123      -0.00541853
C       -3.33388349      -5.27970836       2.56979442      -0.05998336      -0.28203869       0.19701963
N        2.64257305      -3.33706086      -3.42958450       0.01795133       0.10812988      -0.04926136
O       -2.85649254       2.37200559       3.01420614       0.45911289      -0.29749340       0.21093868
C       -2.86093927      -4.14062240       1.77702022       0.08127425       0.32288916       0.29398295
N       -0.57365116       0.81890036      -0.43647681      -0.26647745      -0.28321509      -0.09971562
C       -3.03574050      -5.31340771      -0.43695152       0.16723968      -0.49043204      -0.17003394
C       -1.71779112      -6.04134471      -0.69762228      -0.19394503       0.13637337      -0.00599978
C       -2.35403088      -2.95169309       2.25270240      -0.06708884      -0.33987577       0.07324430
C       -2.20627313      -2.52114471       3.67703182      -0.16424395       0.00503488      -0.03277470
C       -3.33502673      -1.61425395       4.22143513       0.13423599       0.24549344       0.05767070
C       -3.12410406      -1.42496148       5.72618957       0.03233231       0.00729425      -0.23774344
C       -4.69880698      -2.25678640       3.97280784       0.22053124       0.19032032      -0.04550395
C       -3.32438155      -0.24177474       3.53568727      -0.59009761      -0.16578842      -0.11507176
C       -1.96832906       1.69631160       3.48646755      -0.24335746       0.94009655      -0.51918887
C       -0.60558928       2.23436409       3.88987958      -0.19473917      -0.08719990       0.14498181
C        1.95932599       4.22508344       2.72194189       1.19689552       0.38559957      -0.56936212
C        1.82035269       3.89959608       1.23097237      -0.03590872       0.18842815      -0.14850473
C        3.23157730       5.29844754      -0.21992105      -0.12458918       0.36853646      -0.24361947
C        4.60371841       5.36041774      -0.91433246      -0.12246949      -0.06898001       0.34992791
C        5.33524148       6.66845422      -0.60197609      -0.01638344      -0.14973824      -0.02941280
C        6.74746210       6.65481245      -1.18465228      -0.28466164       0.05925031      -0.05577940
C        5.40669183       6.82809035       0.91774812      -0.21171513       0.07100412      -0.15194605
C        4.12318771       3.80903570      -2.62902637       0.31483838      -0.99470107       0.13321185
C        3.59800472       3.37139851      -4.01121604      -0.23218972      -0.24501756       0.17357815
C        2.10978661       3.72464230      -4.12529972       0.10774236      -0.10520139      -0.09002736
C        1.47674901       3.08063628      -5.36112603      -0.31776313       0.37401974       0.14100675
C        0.74874174       0.80730597      -4.95208998      -1.23115993       0.41694866      -0.18643889
C        1.14175878      -0.57283086      -4.83800317      -0.00784338      -1.13730737       0.39399521
C        1.34969942      -1.74166194      -4.63589760      -0.08284690       1.00876967      -0.16698069
C        1.61829912      -3.16587575      -4.47247176       0.07484746      -0.32816709      -0.24930948
C        2.91463209      -4.71777201      -3.08131110       0.00507769       0.06212763      -0.02313874
C        2.41660895      -2.55315738      -2.23352390      -0.08620784       0.14930125       0.15197580
C        0.27818979      -3.86392493      -4.16810730       0.08643117       0.03575861       0.10323110
C        2.17369462      -3.64835607      -5.82486425      -0.08887988      -0.04075965       0.06953654
C        3.11591585       1.32030989      -5.41881069       0.43559030      -0.10574769       0.15070574
C        3.83396200       1.86745112      -4.18531793      -0.07796230       0.12175818      -0.00207683
C        3.99752079       6.23379577      -3.16711260      -0.25236421       0.29541792      -0.22854187
C        1.46890498       2.44496443       0.91110976      -0.26021486       0.25646267      -0.33029355
C        1.36492001       2.23217513      -0.60895906       0.40277230      -0.34808314      -0.03587055
C        0.79111751       0.84571842      -0.91553337       0.31403298       0.30813361      -0.22294069
C       -1.37790751       1.78331294      -1.16805429       0.05741996       0.30568151      -0.17196308
C       -0.79307202       3.17014352      -0.90890444      -0.22077886      -0.03300071      -0.07133997
C        0.92978959       4.41324186       4.92276816       0.25729241      -0.09207666       0.09113174
C        0.66380892       3.20103039       5.81048696      -0.17448334       0.21350313      -0.09707248
C       -0.65746459       2.55773201       5.39684094       0.38009327      -0.13186099      -0.05611727
C       -1.97512844      -2.19545570       1.10636026       0.04031738      -0.29583093      -0.46839480
C       -2.28815065      -2.97895374      -0.03237361       0.21176569       0.71594144       0.06650114
C       -2.04321652      -2.51016148      -1.31933413      -0.03819611      -0.11744575      -0.16132954
C       -1.47946597      -1.26033654      -1.46262082       0.08197339       0.09085536      -0.16672103
C       -1.14873869      -0.48525145      -0.34192196       0.08774931       0.16501859       0.30609856
C       -1.37936103      -0.94938270       0.93489514      -0.02109964      -0.05926463      -0.16602145
F        4.30416773       4.02293636      -5.03703373       0.03912920       0.09382053      -0.10702173
H       -6.76554625      -4.20398350       3.36901381      -0.02329568       0.05041489       0.07183701
H       -7.75783530      -4.36156220       1.91869968      -0.04693670       0.05727768      -0.00136317
H       -7.38071744      -5.79538088       2.89645492      -0.04159991       0.02797359       0.02330739
H       -5.36055607      -4.14905471       1.29987482      -0.06865663      -0.26516680       0.11447453
H       -7.76624134      -5.35420601      -0.12708872       0.00637190       0.01422660      -0.04391147
H       -6.31566243      -4.55925316      -0.79594736      -0.04831219      -0.03183260      -0.02933244
H       -6.68469876      -6.25586366      -1.21049927      -0.06928368       0.10062458      -0.06160762
H       -4.57227851      -8.18336530       4.68983829       0.07935681      -0.05036420       0.07415245
H       -2.16583912      -7.51528267       4.83479984       0.03647587      -0.03889476       0.03899396
H       -1.39406086      -5.60846740       3.41864908       0.01296138       0.02824564      -0.00231091
H       -3.74242149      -5.98629287       0.05195925       0.10618254       0.25307412      -0.21883359
H       -3.47255578      -4.98241167      -1.38268697      -0.05768741      -0.07883299       0.17236705
H       -1.00971939      -5.37786510      -1.18848662       0.06998970      -0.01052791      -0.02366436
H       -1.28407537      -6.38026337       0.24024351       0.01725564      -0.02341735       0.01945275
H       -1.89318022      -6.90347347      -1.33353958       0.04491741      -0.09505685      -0.06085388
H       -2.16885053      -3.40763699       4.31150602       0.07963166       0.10530701       0.05792625
H       -1.26359460      -1.98181872       3.77975234       0.02243037      -0.12679044       0.12361737
H       -2.14806916      -0.98917788       5.91987901       0.04644851       0.01409706       0.08236726
H       -3.88644970      -0.76714509       6.13603739      -0.04778923       0.06164742       0.07633724
H       -3.18612767      -2.38188884       6.23699640       0.00784048      -0.06343512       0.04440405
H       -4.88822156      -2.34969416       2.90707458      -0.07740814      -0.04571890      -0.03928894
H       -4.72404743      -3.24905390       4.41614148      -0.05233850      -0.05318142      -0.00027626
H       -5.49109817      -1.65741374       4.41396391      -0.08445858       0.00977808       0.03712571
H       -4.13112210       0.39108670       3.91974152       0.14172738      -0.14159611      -0.04989047
H       -3.45460027      -0.34196788       2.45421742       0.03775897       0.04941429       0.20715263
H        0.15161710       1.46512103       3.71015886      -0.11386960       0.13650372       0.03202751
H       -1.05272457       4.05921362       3.09865270       0.24580698      -0.16015878      -0.01791280
H        1.06042776       4.57126482       0.81358339       0.16204448      -0.22642185       0.08627962
H        3.83321404       3.60051843       0.71157755      -0.12162042       0.29976393      -0.19323638
H        5.22064113       4.52740361      -0.56385432      -0.13350883       0.25451950      -0.05665857
H        4.76211142       7.50773856      -1.00232594       0.04601748      -0.09885463       0.03345115
H        7.33769331       5.87841408      -0.70375428       0.07247347      -0.06523227       0.02761751
H        6.74374474       6.46123797      -2.25327495       0.06036455      -0.01276100      -0.08699554
H        7.23014112       7.61184353      -1.00728826       0.08034201       0.03640374      -0.01190364
H        5.91807573       7.75262159       1.16970446       0.04586457       0.02874112       0.06521739
H        4.41100031       6.85491606       1.35522817       0.06341539       0.03783050       0.06673034
H        5.94786158       5.99856532       1.36681433       0.05531271      -0.04337189       0.03312138
H        1.60425097       3.37471832      -3.22319749       0.00275947       0.04310018      -0.11790003
H        1.97981665       4.80372003      -4.17857805       0.04082327      -0.03248543       0.08635698
H        1.91616564       3.49934270      -6.27135728      -0.09523886      -0.06098962       0.07123162
H        0.39919122       3.25191400      -5.36074320       0.23443652      -0.02940705      -0.05276705
H        3.84352953      -4.74144703      -2.51260727      -0.04332029      -0.08535752      -0.00150706
H        2.12381876      -5.16925578      -2.46459300       0.01609114      -0.02762751      -0.05105750
H        3.05148168      -5.31309755      -3.97800706       0.01438758      -0.09261535       0.02989694
H        3.28623202      -2.66083291      -1.58681769      -0.04991412       0.01288426       0.01155416
H        2.30924861      -1.50193853      -2.49393934       0.03814946      -0.11273084       0.16222649
H        1.52428644      -2.86106867      -1.66480642       0.07485210       0.05497229      -0.02276711
H       -0.45540527      -3.59186560      -4.92271229      -0.01567881      -0.02972052      -0.02014105
H        0.40318397      -4.94347686      -4.17337532      -0.00758643      -0.05728089       0.01511057
H       -0.09631751      -3.54788916      -3.19650862      -0.01148341      -0.03298104      -0.02754945
H        3.15206319      -3.20793002      -5.99423924       0.01098918       0.01150380       0.01096058
H        2.26185137      -4.73019986      -5.84761190      -0.00077923      -0.06916560      -0.00092202
H        1.50280720      -3.34224860      -6.62352758      -0.00973754      -0.03537310      -0.00813081
H        3.23302743       0.23762101      -5.46835966       0.04362683       0.27482122      -0.08169490
H        3.53292771       1.77324494      -6.32280218      -0.08356507      -0.14853404       0.03487955
H        4.90631210       1.68759059      -4.26269195      -0.05100780       0.01111764       0.10599383
H        3.46908398       1.36588595      -3.28846715       0.06960957       0.05519586      -0.13927511
H        3.82518777       5.93287035      -4.19218534       0.05769080      -0.00872394       0.12493228
H        3.10610597       6.72078489      -2.76638304       0.10251910       0.03340665      -0.06738086
H        4.82411209       6.93966356      -3.16188730      -0.06782932       0.01332900      -0.03863528
H        2.24781620       1.78522257       1.29208229       0.01775490      -0.07814940       0.07363701
H        0.51712549       2.18402454       1.36606334       0.32151220      -0.03457504       0.00270617
H        2.35738717       2.33087951      -1.05928818      -0.38100732      -0.13414364       0.14954018
H        1.36898325       0.07710804      -0.40000568      -0.02444445       0.05518687      -0.04589923
H        0.85224412       0.66145061      -2.00575099       0.02941489       0.00215045       0.26674511
H       -1.38695133       1.58393496      -2.25478888      -0.01656560       0.05365065       0.21767953
H       -2.40125530       1.74341301      -0.78922036       0.08788090       0.03123492      -0.06847856
H       -0.93290363       3.42977559       0.14680556      -0.01472602       0.00875277      -0.10689181
H       -1.27958735       3.91978874      -1.53458126       0.00834371      -0.09821393       0.13378220
H        1.90922542       4.84938168       5.11697173      -0.23106054      -0.04713170      -0.03935160
H        0.15747845       5.17453968       5.07733598       0.04708291      -0.03076612       0.02483235
H        0.62338219       3.51413948       6.85248523       0.04574679      -0.03767142       0.02229498
H        1.47714493       2.48381280       5.69325973       0.00274394       0.05206374       0.05489294
H       -1.48431524       3.24700866       5.58593614       0.00017486      -0.06764619      -0.03619747
H       -0.83499802       1.64140206       5.95808788      -0.07067640       0.02747617      -0.01500520
H       -2.29496337      -3.09706597      -2.19019227       0.01103459      -0.02358982      -0.02881285
H       -1.28258650      -0.86905748      -2.45163917       0.00684148       0.01775457      -0.00122592
H       -1.08753902      -0.33882517       1.77219101       0.00631175       0.05455699      -0.03398963
