151
Properties=species:S:1:pos:R:3:MACE_forces:R:3 energy:=T -221.336899757477=T gnorm:=T 0.009551859434=T xtb:=T 6.7.1=T (edcfbbe)=T MACE_energy=-90873.42805479745 pbc="F F F"
C       -7.23502878      -4.76458614       2.45254298       0.21564298      -0.10443775      -0.32070056
N       -5.39855401      -6.64707828       3.50367218      -0.28619211      -0.06305606      -0.07878260
O       -6.06532594      -6.04896831       0.71551730      -0.05208579       0.00920749       0.20090568
C       -5.91295194      -5.07688062       1.75133627      -0.08257842       0.12493186      -0.00819967
N       -2.83490838      -4.29757491       0.65957160      -0.30333508       0.01581982       0.02518615
O       -2.09609666       0.50037421       3.76419975       0.05369250      -0.60513644       0.40974161
C       -6.66854570      -5.56727897      -0.46482652       0.09170775      -0.00590894       0.13227832
N        0.12333865       3.20249729       3.04070123      -0.38581397       0.24915773      -0.05863763
O       -0.60065785       1.05504648      -4.43764130       0.82065844      -0.10564093      -0.15495665
C       -4.92804263      -5.66862306       2.74295050       0.26716746       0.22273438      -0.25170663
N        1.36660371       3.65570931       3.49551034      -0.70268250      -0.07245147       0.87039787
O        4.31493606       3.06172671      -2.12914952      -0.10224251       0.31876613      -0.36259916
C       -4.60732905      -7.21476666       4.39571140       0.07073402      -0.09346445       0.22501181
N        3.26742990       4.05780237       0.40038489      -0.07656536      -0.60955296       0.39767223
O        2.40852717       6.06468325      -0.17796254       0.31621338      -0.16585092      -0.04888936
C       -3.29596897      -6.81784902       4.60714842       0.03381783       0.04821028      -0.05030706
N        4.08725728       5.26370868      -2.48770728       0.36856471       0.38323264       0.12204778
O        0.70032799       2.97881851      -1.19474585       0.02686102      -0.08560083       0.11746228
C       -2.79417161      -5.80186470       3.81523332      -0.15721039      -0.11150303      -0.07144788
N        1.34740332       1.79386279      -5.34720876       0.13964364       0.21441738      -0.27309189
O        3.47154579       4.29998045       3.03883336      -0.64075198      -0.31814236      -0.11229232
C       -3.60709402      -5.21304578       2.84505734      -0.06508934      -0.29335745       0.26138745
N        3.03303450      -3.10782944      -3.64768130       0.00992586       0.09046055      -0.03193887
O       -2.49739037       2.46975520       2.77120970       0.38142635      -0.30145902       0.29484846
C       -3.03271161      -4.14833831       2.01632373       0.06572645       0.37995130       0.35450200
N       -0.34136123       0.53584301      -0.32324896      -0.14325846      -0.25357187      -0.10401648
C       -2.99887483      -5.52391116      -0.08104641       0.16088311      -0.48145163      -0.09260955
C       -1.73030825      -6.37422756      -0.03391492      -0.10698315       0.06927488      -0.06696205
C       -2.54592925      -2.93229042       2.44077570      -0.08498802      -0.37589810       0.09572005
C       -2.56823975      -2.37324144       3.82753609      -0.12092669       0.01972515      -0.09641752
C       -3.66864319      -1.32309571       4.11223916       0.15626022       0.19152287       0.09675195
C       -3.71368980      -1.06315817       5.62129210       0.05344697      -0.01261509      -0.23900157
C       -5.02794049      -1.84009010       3.64268867       0.21452663       0.17720245      -0.04889548
C       -3.38830732      -0.00137397       3.38814610      -0.50087547      -0.06930278      -0.27353568
C       -1.76610421       1.71817051       3.37627655      -0.04100080       0.94818782      -0.62169464
C       -0.35521877       2.06938673       3.82410175      -0.15830123      -0.03137245       0.14656236
C        2.38576579       3.87589942       2.65080410       1.15216380       0.38586043      -0.57918136
C        2.12294823       3.61492328       1.16482633      -0.00900990       0.20366938      -0.03697707
C        3.31143431       5.23415841      -0.22727202      -0.10908982       0.46251870      -0.12915524
C        4.55626712       5.44620520      -1.10553330      -0.05790063      -0.06111749       0.39912651
C        5.23834995       6.78009106      -0.79394960       0.02077273      -0.14354096      -0.03327858
C        6.50520902       6.96151372      -1.62756156      -0.32022639       0.04547161      -0.02384381
C        5.59538259       6.79130726       0.69311582      -0.29994353       0.01077766      -0.07360219
C        3.94146652       3.98569729      -2.85816405       0.31062316      -0.88707178      -0.03907709
C        3.26211754       3.60893658      -4.19247243      -0.19809422      -0.29100786       0.23813238
C        1.75096741       3.83489815      -4.08033729       0.06156833      -0.08148048      -0.17936138
C        0.98547880       3.18709174      -5.23891001      -0.30402486       0.37169610       0.26403661
C        0.55252668       0.84282070      -4.82838414      -1.27056457       0.34600232       0.19122808
C        1.10221554      -0.48717457      -4.76496495       0.06853898      -1.10349015       0.32498863
C        1.40718515      -1.63664435      -4.57312702      -0.04133362       0.92887244      -0.24460754
C        1.79993567      -3.03695205      -4.44642272      -0.03329777      -0.29358033      -0.19349420
C        3.52122728      -4.45250617      -3.41929243       0.00871833       0.03454784       0.00084845
C        2.97375435      -2.37413528      -2.40074124      -0.02785624       0.08974167       0.17090523
C        0.60816128      -3.81198521      -3.85009632       0.14181744       0.08688247       0.09634999
C        2.07822139      -3.52898772      -5.87951108      -0.02661742      -0.02886757       0.07145886
C        2.74434981       1.60286857      -5.65729093       0.44172576      -0.03750863       0.10630870
C        3.60132576       2.15038604      -4.51749984      -0.09929518       0.07827476      -0.04875581
C        3.50149213       6.41654043      -3.13928602      -0.33815487       0.25934118      -0.09355043
C        1.81627164       2.15297020       0.83831338      -0.24665036       0.26926359      -0.41693936
C        1.55522607       1.97172008      -0.66697975       0.34849348      -0.36267007      -0.04766105
C        0.96272658       0.58563954      -0.94659327       0.19453832       0.31164581      -0.17958925
C       -1.22549822       1.50490519      -0.95041484      -0.06057640       0.41879847      -0.25765173
C       -0.63614259       2.89312065      -0.72248423      -0.32350005      -0.06495532      -0.02035991
C        1.46530581       3.99375721       4.90854871       0.30820666      -0.08328383       0.09270470
C        1.04588701       2.79406570       5.75352718      -0.20574319       0.27027996      -0.07932126
C       -0.35559825       2.35055098       5.33899292       0.28726398      -0.25825034      -0.09931038
C       -1.99684793      -2.30301167       1.28722670       0.06176756      -0.25786702      -0.37019335
C       -2.19246119      -3.18413237       0.19458471       0.17872607       0.62324815       0.12565149
C       -1.76568621      -2.84765772      -1.08675993      -0.00541535      -0.06352795      -0.09423109
C       -1.15244601      -1.62615508      -1.27214428       0.10518681       0.12118826      -0.11893698
C       -0.93392049      -0.75832135      -0.19282791       0.11432087       0.20713299       0.36945618
C       -1.33112118      -1.09941417       1.08133323      -0.00932352      -0.07421994      -0.24456275
F        3.76826729       4.39782394      -5.24076114       0.04029279       0.07618268      -0.12939328
H       -7.05879827      -4.06583502       3.26448099      -0.05733467       0.05182100       0.05157517
H       -7.94712793      -4.32361637       1.76188769      -0.03464167       0.07242169      -0.01557804
H       -7.63960871      -5.68784773       2.85305593      -0.04520676       0.01007257       0.05147236
H       -5.48727991      -4.15837338       1.31692020      -0.06091350      -0.22237993       0.11766106
H       -6.05951011      -4.77899606      -0.92348255      -0.06095048      -0.02989263       0.00709177
H       -6.72954659      -6.42156473      -1.13549188      -0.02579942       0.11988894      -0.05840222
H       -7.67470201      -5.18331601      -0.28284995       0.02064245      -0.00429016      -0.04637142
H       -5.05607372      -8.01186659       4.97513963       0.09308673      -0.01390207       0.04662179
H       -2.68653596      -7.29154333       5.35998247       0.00329183      -0.03467283       0.02473632
H       -1.77342493      -5.46478296       3.92229125       0.01442822       0.02131430       0.00526618
H       -3.83500779      -6.08715340       0.33772890       0.12981702       0.23105693      -0.18432891
H       -3.23903872      -5.26780935      -1.11587917      -0.08442045      -0.04692050       0.17289429
H       -0.88688751      -5.81508325      -0.43865543       0.01378648      -0.07554906       0.02467131
H       -1.50270292      -6.65804893       0.99502494      -0.01458374       0.02179482      -0.10294857
H       -1.87238449      -7.27926764      -0.62318302       0.07639501      -0.00986468       0.03381306
H       -2.71515019      -3.19462050       4.53019511       0.06889006       0.09716331       0.04877556
H       -1.60015253      -1.91286334       4.03343147      -0.02706347      -0.11735953       0.13476188
H       -2.74801441      -0.71221252       5.97489938       0.03813973       0.00402523       0.08418631
H       -4.46252493      -0.30932815       5.85174525      -0.05167615       0.06106798       0.06802189
H       -3.97057324      -1.97586542       6.15274285      -0.00539061      -0.04832201       0.06314915
H       -5.03569866      -1.97443447       2.56366427      -0.04315504      -0.04435089      -0.02609014
H       -5.23419308      -2.79943484       4.11060949      -0.04548504      -0.05199094       0.01414526
H       -5.81772158      -1.14212020       3.90959634      -0.08662798       0.01798033       0.04387085
H       -4.14196730       0.74990854       3.64410044       0.11763763      -0.16676770      -0.03119514
H       -3.40164625      -0.13898384       2.30270534       0.00480507       0.06003925       0.20287644
H        0.29953280       1.21501330       3.61980480      -0.10912860       0.13356530       0.03133536
H       -0.57035437       3.95144703       3.06577909       0.20716001      -0.15541168       0.00037416
H        1.28622889       4.25335171       0.85966039       0.20096738      -0.26949279       0.06891929
H        4.05019074       3.42603955       0.32693381      -0.16973354       0.26342570      -0.15907340
H        5.27164115       4.63956375      -0.91885931      -0.13746670       0.24645340      -0.02052422
H        4.53375843       7.59470392      -0.97849207       0.07570546      -0.12280950      -0.00081772
H        7.24351371       6.21536326      -1.34603606       0.08128365      -0.06244245      -0.00186776
H        6.31093521       6.86035564      -2.69208667       0.04274821      -0.00270077      -0.07387139
H        6.92614983       7.94675034      -1.44723253       0.09114841       0.04064036      -0.01557093
H        6.06459835       7.73376128       0.95801907       0.06530829       0.05800558       0.04886696
H        4.70632872       6.66391375       1.30786052       0.07444996       0.04246598       0.06030629
H        6.28367678       5.98202675       0.92673045       0.07740763      -0.03912838       0.02211376
H        1.41142245       3.40969973      -3.13381083       0.00240387       0.04684515      -0.14732304
H        1.53055431       4.90120716      -4.06268962       0.05094315      -0.07211353       0.08366844
H        1.22784163       3.68560183      -6.18120990      -0.07614698      -0.07165131       0.07435350
H       -0.08804888       3.25190102      -5.05390377       0.23829350       0.00637901      -0.11104661
H        4.52190268      -4.37733457      -2.99293194      -0.05970681      -0.08107132      -0.02998052
H        2.89625131      -5.02585460      -2.71849424       0.03625469      -0.00429423      -0.06592813
H        3.59328507      -4.99111309      -4.35917489       0.02017337      -0.08233609       0.02656146
H        2.29513686      -2.82419439      -1.65876668       0.05926436       0.06347502      -0.05441418
H        3.97480099      -2.34456576      -1.97214970      -0.04419722       0.00038009       0.03663317
H        2.65104621      -1.35223555      -2.58965010       0.04117664      -0.06852058       0.10311422
H       -0.28173182      -3.62347376      -4.44486200      -0.04957651      -0.03761841       0.02367228
H        0.81406916      -4.87910616      -3.85472954      -0.00394503      -0.04846776       0.00034702
H        0.41572644      -3.48968661      -2.82843574      -0.03857640      -0.04259367      -0.05110389
H        3.02952678      -3.13107535      -6.22204593      -0.00714708       0.00541102      -0.00891670
H        2.10198489      -4.61391383      -5.91929920       0.03638862      -0.06056828      -0.01735673
H        1.28947325      -3.17963375      -6.54131323       0.01023003      -0.08462892      -0.02099235
H        2.94871700       0.54154174      -5.80089989      -0.02119524       0.21986000      -0.05522587
H        2.96353320       2.14446007      -6.58198296      -0.02832896      -0.15963808       0.04861588
H        4.65944052       2.08752053      -4.77288619      -0.04630054       0.00610994       0.10161990
H        3.43448005       1.56064448      -3.61519547       0.03870650       0.06243641      -0.16851006
H        4.21638633       7.23571841      -3.13613601      -0.06705823      -0.04296886      -0.03967103
H        3.25238734       6.19837226      -4.16962506       0.07592661      -0.01906174       0.07896028
H        2.60703460       6.72739874      -2.59248208       0.13079330       0.04497200      -0.10531940
H        2.65986701       1.52493791       1.12099942       0.03904478      -0.07129935       0.05005438
H        0.93003730       1.83462943       1.38056104       0.24650420       0.00704776      -0.00258888
H        2.49142790       2.09706352      -1.22214743      -0.24103906      -0.11344978       0.20137557
H        1.59661612      -0.18859236      -0.51551371       0.01874237       0.01328750      -0.03931927
H        0.91026084       0.43510477      -2.04002508       0.05495676      -0.02997697       0.22482854
H       -1.33734225       1.31727749      -2.03359717       0.02004542       0.05069090       0.23588223
H       -2.20794285       1.44712821      -0.47718671       0.09407110       0.03706644      -0.04337831
H       -0.68311009       3.13137262       0.34596315       0.00515121      -0.00023354      -0.11208528
H       -1.18733316       3.64599670      -1.28728591      -0.00663473      -0.09673767       0.12426923
H        2.49884133       4.28454822       5.10039142      -0.25743108      -0.02855116      -0.03951947
H        0.81002837       4.84883173       5.11101008       0.06113813      -0.05232220       0.00665318
H        1.06158323       3.06983787       6.80696602       0.04113623      -0.05443728       0.00777738
H        1.75212970       1.97813768       5.59603623       0.03336280       0.02399759       0.05201399
H       -1.07789088       3.14003948       5.55862529      -0.02372281      -0.04810494      -0.02011078
H       -0.65138647       1.44900770       5.87360541      -0.06202545       0.05909250       0.00618752
H       -1.92182797      -3.51006205      -1.92034606      -0.01908042      -0.10309044      -0.12883499
H       -0.83748101      -1.31968108      -2.26018484      -0.01962492      -0.03094649      -0.02958697
H       -1.10838044      -0.42479359       1.88874455      -0.01461681       0.01069215       0.01180420
