151
Properties=species:S:1:pos:R:3:MACE_forces:R:3 energy:=T -221.338650176372=T gnorm:=T 0.005288051262=T xtb:=T 6.7.1=T (edcfbbe)=T MACE_energy=-90873.5036753029 pbc="F F F"
C       -7.01702210      -4.68887646       2.68814328       0.14979635      -0.09346118      -0.34410759
N       -5.16610361      -6.71862105       3.35857256      -0.32342373      -0.01253109      -0.04448027
O       -6.08572162      -5.83677153       0.71620203      -0.01537491       0.00121887       0.19566593
C       -5.79306067      -4.98117563       1.82011987      -0.07863154       0.17277868      -0.00675781
N       -2.81901249      -4.19688150       0.45849802      -0.27911350      -0.02163591       0.07189797
O       -1.90433853       0.37483057       3.79665434       0.25430607      -0.71568889       0.29371940
C       -6.97463016      -5.29589867      -0.23644653       0.10276518      -0.02633198       0.12405094
N       -0.22123810       3.42040829       3.20013416      -0.44562756       0.19462292      -0.06034528
O       -0.23955380       0.56077695      -4.37479812       0.74380892      -0.05538998      -0.22868472
C       -4.73141150      -5.69850353       2.63125048       0.24412850       0.23338578      -0.22576970
N        0.92574945       4.07378423       3.66375725      -0.76167242      -0.05701173       0.80354125
O        4.25387732       3.09271356      -2.07521807      -0.24260823       0.25058277      -0.26780331
C       -4.31321061      -7.39925757       4.10065453       0.16961456      -0.12620774       0.14218256
N        2.99086253       4.34042628       0.66163721       0.02870372      -0.61061305       0.47243746
O        1.97748445       6.09536523      -0.32528712       0.28965781      -0.06211981      -0.03293730
C       -2.96271004      -7.09177270       4.17789940      -0.04525563       0.03241888      -0.02296050
N        3.78058621       5.25693759      -2.44899372       0.29418205       0.36286969       0.17218273
O        0.96660393       3.02123379      -1.13105088       0.00983239      -0.07945892       0.15462475
C       -2.50010269      -6.03049566       3.42414151      -0.14843371      -0.07861691      -0.05912438
N        1.57981155       1.48568621      -5.37788942       0.03951521       0.18844467      -0.25308025
O        3.00651749       4.82618830       3.27418177      -0.48838107      -0.35146679      -0.06627693
C       -3.38462891      -5.31224952       2.61690526      -0.02730096      -0.33076366       0.24253157
N        1.82272147      -4.07972022      -3.60773043       0.15884149      -0.07109733      -0.05911229
O       -2.78723496       2.33911382       3.17189220       0.52100703      -0.25530508       0.18530173
C       -2.84622897      -4.19263759       1.83754313       0.12648321       0.32435402       0.33424947
N       -0.31074451       0.66374531      -0.33575744      -0.04855091      -0.17422348      -0.07326562
C       -3.14514982      -5.31462257      -0.39231803       0.12196279      -0.43608955      -0.16480373
C       -1.91852802      -6.18579129      -0.65564589      -0.15240741       0.15760468      -0.02820009
C       -2.24276690      -3.05309620       2.32158788      -0.09859659      -0.33705708       0.06039508
C       -2.08318653      -2.61959653       3.74275347      -0.20010583       0.03420201      -0.06279193
C       -3.17492038      -1.65414488       4.26236435       0.16727452       0.24239941       0.05912163
C       -2.94416290      -1.41883807       5.75755728       0.01208590       0.01601351      -0.24750487
C       -4.56224288      -2.25527316       4.04362351       0.19586625       0.18929862      -0.05528607
C       -3.13542174      -0.30934935       3.52551243      -0.62820393      -0.15563125      -0.15418604
C       -1.86464072       1.67509275       3.59295476      -0.29213025       1.05088122      -0.45482586
C       -0.53461536       2.26225541       4.03192802      -0.19915718      -0.04894121       0.20767346
C        1.98307253       4.28613875       2.86628720       1.02716922       0.44277030      -0.58684235
C        1.83087530       3.88844481       1.39592726      -0.02179397       0.16009185      -0.12293765
C        2.95148024       5.36274592      -0.19693966      -0.12573998       0.32786619      -0.17266790
C        4.20512175       5.51295371      -1.06742375       0.01183926       0.02487025       0.31398203
C        4.91104462       6.85063362      -0.82099087       0.01139036      -0.11349486      -0.04447487
C        6.08454820       7.03043288      -1.78106895      -0.28892038       0.01510801       0.07166824
C        5.40614861       6.85765332       0.62631298      -0.28219205       0.06540262      -0.11771934
C        3.79705359       3.96763413      -2.81517181       0.48937257      -0.82516842      -0.02803728
C        3.23626261       3.52500736      -4.18679839      -0.18106371      -0.27042355       0.18989532
C        1.70613455       3.59723125      -4.15830934       0.06721878      -0.12806900      -0.19239450
C        1.05352545       2.82849136      -5.31081692      -0.34085375       0.33256260       0.21127333
C        0.91653690       0.46641246      -4.80193669      -1.15022407       0.26309007       0.23633682
C        1.62045504      -0.78501014      -4.72198321       0.38078119      -1.01157449       0.25885735
C        2.12603916      -1.86769694      -4.56643544      -0.48027824       0.89235144      -0.14017553
C        2.69701777      -3.20380454      -4.40512051       0.32790295      -0.39442374      -0.06448229
C        0.49394510      -4.24551596      -4.16762860      -0.16454952       0.08219713      -0.01321469
C        1.71833680      -3.70584167      -2.20844690      -0.01542501       0.15137285       0.09421492
C        2.90693321      -3.81315998      -5.80353411      -0.10454950       0.03315876       0.05044123
C        4.07441602      -3.06344550      -3.73703048      -0.11987424       0.04853407       0.06076088
C        2.99621926       1.46703104      -5.65620037       0.46741137       0.00427218       0.13019338
C        3.75008599       2.11423521      -4.49504940      -0.12111346       0.06499377      -0.03886817
C        3.05199219       6.30799403      -3.12916026      -0.38657418       0.20361854      -0.17879717
C        1.63299806       2.38777991       1.15641630      -0.21642345       0.18832960      -0.48088813
C        1.66762095       2.06158258      -0.34943004       0.37929001      -0.36137764       0.11247349
C        1.11257992       0.65483879      -0.60531352       0.26138711       0.28519833      -0.18991109
C       -0.98451585       1.57992159      -1.23823778       0.04642459       0.40828107      -0.20718070
C       -0.43980776       2.97518730      -0.95145677      -0.30899935      -0.10548474      -0.09195159
C        0.90562828       4.51883788       5.04944314       0.30389916      -0.07122806       0.09028443
C        0.63288318       3.32958819       5.96706933      -0.22323727       0.19215391      -0.10153202
C       -0.64993506       2.62772787       5.52567606       0.32427646      -0.16473365      -0.07273335
C       -1.80504624      -2.31967319       1.18147508       0.07186802      -0.25599531      -0.40547998
C       -2.17951381      -3.06567771       0.03724037       0.21837398       0.63125692       0.13239440
C       -1.91093582      -2.59606616      -1.24459418      -0.05274296      -0.11687508      -0.18269622
C       -1.28946702      -1.37303785      -1.37194507       0.09907533       0.12473257      -0.18773611
C       -0.90810144      -0.62902174      -0.24441919       0.01414420       0.12053323       0.31049685
C       -1.13634884      -1.10836051       1.02722004      -0.03283214      -0.08921474      -0.18043895
F        3.71729303       4.37175213      -5.20227373       0.02184037       0.05151520      -0.13015394
H       -7.45421221      -5.62801533       3.01339903      -0.01195912       0.01682314       0.02896052
H       -6.71200925      -4.11749834       3.55896637      -0.04428573       0.05101105       0.05917404
H       -7.75250494      -4.11296983       2.13366295      -0.03297756       0.05536457       0.01390453
H       -5.38176167      -4.03543779       1.42803699      -0.06075493      -0.26282784       0.11109205
H       -6.90902052      -5.94653844      -1.10574459      -0.08555190       0.10155122      -0.01959123
H       -8.00452170      -5.28630191       0.13022322       0.04821519       0.03804728      -0.05685111
H       -6.67840172      -4.27834440      -0.51487929      -0.04389597      -0.03742861      -0.02929127
H       -4.73691899      -8.22155531       4.66073365       0.07555172      -0.05696702       0.06620300
H       -2.29983547      -7.66754263       4.80286364       0.02776169      -0.02721223       0.03498158
H       -1.45610005      -5.75382375       3.43749298       0.02378311       0.02332311      -0.00414389
H       -3.92975091      -5.90735464       0.08100125       0.13042628       0.23787818      -0.18388362
H       -3.53243292      -4.92099675      -1.33549465      -0.07393899      -0.07291189       0.17766896
H       -1.12839428      -5.59425763      -1.11349143       0.05663067      -0.03241304      -0.01999880
H       -1.54453337      -6.60243536       0.27654099       0.01575026      -0.02219013       0.02101425
H       -2.18101193      -7.00121113      -1.32277735       0.04101565      -0.10387112      -0.05219108
H       -2.09239977      -3.49812697       4.38944236       0.08586406       0.08683100       0.04904620
H       -1.11746771      -2.12287048       3.84655239       0.03062619      -0.11428103       0.12339347
H       -1.94349252      -1.03119921       5.92962213       0.03016546       0.00822234       0.07226233
H       -3.66535304      -0.70327947       6.14537626      -0.04881234       0.04940159       0.07973878
H       -3.05517577      -2.35101258       6.30411484      -0.00695788      -0.06975674       0.07588921
H       -4.61624219      -3.23994852       4.50035166      -0.03264297      -0.06942419       0.01439055
H       -5.32771214      -1.62195058       4.48527311      -0.07458763       0.01682027       0.05445722
H       -4.76841588      -2.35430413       2.98156985      -0.06251363      -0.05341544      -0.04337177
H       -3.96173444       0.33215674       3.84945151       0.15850152      -0.17681628      -0.04876933
H       -3.21969337      -0.45349942       2.44417819      -0.00725306       0.07776273       0.22899205
H        0.25515507       1.51763049       3.89641194      -0.11898559       0.12437935       0.00557963
H       -1.02159306       4.05605523       3.20171742       0.25582396      -0.13893266      -0.02317619
H        0.98229499       4.45361151       0.99331478       0.23701482      -0.25393094       0.09883410
H        3.83169031       3.79141436       0.75219156      -0.14965405       0.22721569      -0.19940956
H        4.90815705       4.71000254      -0.82600700      -0.15601507       0.26441958      -0.03848593
H        4.19217346       7.66732389      -0.93534608       0.08767394      -0.13240292      -0.01225656
H        5.75800587       7.03239011      -2.81694494       0.03684918       0.00752116      -0.08334137
H        6.59139724       7.96870442      -1.57494636       0.07864246       0.04965070      -0.02421074
H        6.79522413       6.21737957      -1.65154527       0.08007006      -0.04265659      -0.01359420
H        4.58303625       6.70128136       1.32110325       0.06518671       0.01768716       0.07624971
H        6.13784502       6.06774574       0.78048863       0.07265219      -0.05531608       0.03139209
H        5.87449843       7.81006487       0.85609144       0.05559538       0.05476169       0.05315656
H        1.37784411       3.18789892      -3.20166293      -0.00783305       0.02962265      -0.14546099
H        1.38756182       4.63563952      -4.21129878       0.04439930      -0.03142602       0.10925617
H        1.25806614       3.32656139      -6.26243873      -0.07315535      -0.08320090       0.08090986
H       -0.02467286       2.77179452      -5.15172530       0.23417671       0.03468851      -0.10244487
H       -0.09372289      -3.31169834      -4.15868395       0.08968465      -0.15143482      -0.01413697
H        0.55364915      -4.61378176      -5.18724067      -0.05347498      -0.00089060       0.01594845
H       -0.03438175      -4.98981184      -3.57117125      -0.00592571       0.06460736      -0.07247997
H        1.07580263      -4.43152861      -1.71259796       0.01399886       0.06857866       0.02978201
H        2.69307083      -3.74538321      -1.73185672      -0.03925888       0.01270770       0.04391273
H        1.28032324      -2.70627270      -2.05879176       0.05691315      -0.12429140      -0.00409189
H        3.71067222      -3.29014993      -6.31368821      -0.00350783       0.02294506      -0.02634736
H        3.17351204      -4.85988774      -5.69315322       0.03140811      -0.06437284       0.01076543
H        2.01429857      -3.73073252      -6.41713310       0.03240325      -0.02707245       0.00836846
H        4.02307078      -2.45482533      -2.83821415       0.02011577      -0.05376747      -0.01085007
H        4.45118057      -4.05049693      -3.48766665       0.04115645      -0.08017063       0.02210262
H        4.76384591      -2.58199785      -4.42515630       0.00066013       0.00932348      -0.00284901
H        3.33118453       0.43889175      -5.79486427      -0.04651572       0.22469252      -0.05110438
H        3.16799463       2.03305463      -6.57548064      -0.01127597      -0.15977707       0.03672409
H        4.81455647       2.17519592      -4.72147117      -0.04078024       0.00673948       0.11574547
H        3.62633789       1.51302334      -3.59371953       0.03719276       0.04527488      -0.17063398
H        3.13904704       6.20471563      -4.20521265       0.00923427      -0.01189759       0.10399672
H        2.00386732       6.29923412      -2.82269352       0.13659604       0.12068163      -0.07188219
H        3.47086024       7.26691931      -2.84174735      -0.02913615      -0.05966426      -0.06592889
H        2.42967513       1.82784535       1.64643060       0.00506033      -0.06807436       0.04362549
H        0.67064104       2.07839676       1.55671640       0.23421933       0.00625191       0.03483941
H        2.69429225       2.12280966      -0.72725216      -0.25620493      -0.07958216       0.16294398
H        1.59730251      -0.06230038       0.05850109       0.00162241       0.04486016      -0.07057816
H        1.32704763       0.36642136      -1.65219831       0.00358676       0.01877308       0.20001567
H       -0.81828254       1.33029497      -2.29959987      -0.06710857       0.05438651       0.23888265
H       -2.05590292       1.55262567      -1.03294140       0.07139149       0.03476080      -0.02474193
H       -0.70575915       3.26187802       0.07239487       0.00458894       0.02305133      -0.11010245
H       -0.84543290       3.70914068      -1.64985042      -0.00777757      -0.08331139       0.12848216
H        1.87288636       4.97558399       5.25716373      -0.21790174      -0.04068560      -0.03088159
H        0.11843659       5.27276104       5.15853260       0.06545170      -0.03799634       0.01357391
H        0.53726542       3.67861639       6.99398454       0.06128477      -0.04156569       0.02544787
H        1.47060480       2.63358934       5.91204631       0.03070311       0.03635028       0.04711929
H       -1.50803146       3.29058518       5.66226114       0.01578456      -0.06295447      -0.03100065
H       -0.81461062       1.72315814       6.10987519      -0.06789842       0.02710534       0.00438159
H       -2.18412513      -3.15870790      -2.12454483      -0.01514903      -0.02884326      -0.02071019
H       -1.08898341      -0.97476537      -2.35740232       0.00371312       0.00024723      -0.00298208
H       -0.80798258      -0.53251020       1.87687135      -0.04659022       0.06178247      -0.01066082
