151
Properties=species:S:1:pos:R:3:MACE_forces:R:3 energy:=T -221.337828242435=T gnorm:=T 0.004310629176=T xtb:=T 6.7.1=T (edcfbbe)=T MACE_energy=-90873.48095511312 pbc="F F F"
C       -6.97078722      -4.90048298       3.31460406       0.12797600      -0.06932097      -0.34925862
N       -4.94928058      -6.86634074       3.46269926      -0.31945490      -0.00890847       0.01122980
O       -6.33572256      -5.75652144       1.09882360       0.03449741      -0.06551745       0.21260024
C       -5.89209851      -5.01973289       2.23698457      -0.07713089       0.15530456       0.04051322
N       -3.10966867      -4.08612438       0.44854993      -0.29271790       0.00207887       0.23069970
O       -1.97041788       0.48792159       3.71680538       0.14183678      -0.65984161       0.30959184
C       -7.28329449      -5.08155644       0.30114001       0.07124833       0.03156326       0.10433711
N       -0.24191627       3.45930076       2.83291425      -0.37037403       0.25653940      -0.06986679
O       -0.53634167       1.12698517      -4.61958347       0.76506682      -0.13852137      -0.22023778
C       -4.68627726      -5.75526599       2.78886151       0.20626098       0.29090402      -0.23963885
N        0.89816557       4.14244996       3.26859486      -0.83206135       0.00267280       0.79449529
O        4.36086520       2.78721196      -2.05366051      -0.10006154       0.29489611      -0.34806653
C       -3.95607835      -7.55675724       3.99206087       0.10985335      -0.13326649       0.08754440
N        3.13949405       4.13215454       0.37467574      -0.15006075      -0.58452415       0.45804248
O        2.38065342       5.96024689      -0.70812816       0.31379491      -0.12646381       0.07686416
C       -2.62994260      -7.16049657       3.90939010      -0.00765323       0.05184751      -0.04418468
N        4.32696663       4.96126699      -2.59999417       0.37347365       0.39028334       0.12075860
O        0.84609823       2.97073036      -1.43266464      -0.01637405      -0.11903340       0.12184358
C       -2.34584479      -6.00484682       3.20689531      -0.15362104      -0.07002022       0.02611569
N        1.54132598       1.53817713      -5.44423821       0.12741887       0.14998082      -0.28944032
O        3.00765713       4.82214087       2.91529030      -0.51565498      -0.34595260       0.00371442
C       -3.37990360      -5.28297241       2.60837309      -0.02686256      -0.28449022       0.20694530
N        2.74270862      -3.48654672      -4.18570814       0.01488288       0.04874597      -0.09450955
O       -2.79621457       2.35222984       2.78280209       0.43457237      -0.25291635       0.23394909
C       -3.00831674      -4.09839313       1.82392495       0.14173771       0.27266925       0.24853530
N       -0.54985442       0.71994513      -0.52654249      -0.22973073      -0.22432013      -0.00611987
C       -3.52318063      -5.19467112      -0.37590975       0.10464151      -0.53326188      -0.18780589
C       -2.35425908      -6.13425190      -0.66790749      -0.15620977       0.17811090      -0.00042811
C       -2.38383205      -2.95307923       2.26440238      -0.12699292      -0.26331811       0.07977436
C       -2.12683714      -2.51822231       3.67046589      -0.15321760      -0.00129130      -0.03403382
C       -3.18835771      -1.55303912       4.25186249       0.14992000       0.24881360       0.07878914
C       -2.86669332      -1.30106313       5.72746327       0.01690357       0.00004156      -0.24549691
C       -4.58166383      -2.16747424       4.13075731       0.20345300       0.18323159      -0.09475792
C       -3.20509588      -0.21542494       3.50171279      -0.55302818      -0.12317875      -0.09300388
C       -1.90167421       1.74559102       3.32973464      -0.21893162       0.90441798      -0.57185632
C       -0.57813873       2.36747910       3.74090380      -0.21718732      -0.06789688       0.13720786
C        1.98899239       4.27859099       2.49813775       1.22925185       0.33970523      -0.55797670
C        1.89505394       3.81449171       1.04118892      -0.06383718       0.16785556      -0.17179016
C        3.27728388       5.15943884      -0.46539043      -0.12309626       0.35510015      -0.25719194
C        4.63255841       5.23123671      -1.18633815      -0.09887127      -0.06433982       0.31862836
C        5.34829400       6.55312279      -0.89507661      -0.01609659      -0.15574701      -0.03758578
C        6.73164250       6.58253937      -1.54362463      -0.26343818       0.01461235      -0.03984714
C        5.48506976       6.70171721       0.62138664      -0.22906873       0.07686560      -0.16063249
C        4.12172797       3.66972447      -2.88291148       0.31365376      -0.99336712       0.03220662
C        3.53577464       3.23291616      -4.24450618      -0.20992196      -0.25146986       0.23133150
C        2.05424332       3.62103998      -4.30761807       0.05004489      -0.08734995      -0.09591964
C        1.34310840       2.96817995      -5.49660144      -0.27891892       0.37994819       0.15911242
C        0.61476824       0.75383975      -4.86391259      -1.16306049       0.42919093       0.04927837
C        1.03067908      -0.58049490      -4.52142715      -0.04228086      -1.11268320       0.61222580
C        1.22609842      -1.67856423      -4.06576962      -0.01095878       0.94234748      -0.56843446
C        1.51214519      -3.01035010      -3.53987372      -0.23558944      -0.19700216       0.24274203
C        3.05882146      -4.88269743      -3.96651146      -0.06769446       0.01349856       0.01345668
C        3.90226071      -2.65796495      -3.91830041       0.02973216       0.04923524      -0.01170514
C        1.59939493      -2.89627798      -2.00256544       0.03512975      -0.02301451      -0.11943805
C        0.31522562      -3.89695349      -3.91520362       0.08601424       0.05744722       0.03551828
C        2.92932855       1.16728316      -5.58272503       0.48879771      -0.11097094       0.11498293
C        3.73333003       1.72164984      -4.40725678      -0.08466187       0.10474264      -0.00194317
C        3.94323677       6.09077188      -3.42169905      -0.24698699       0.27602297      -0.19433625
C        1.56382594       2.33398678       0.83828931      -0.25285742       0.24268737      -0.36030966
C        1.51551738       1.98268111      -0.65997743       0.38016547      -0.35812682       0.07099796
C        0.85644194       0.61348480      -0.86450937       0.30603737       0.31741132      -0.24374258
C       -1.20923868       1.66917637      -1.40592131       0.06202327       0.28072155      -0.23760658
C       -0.55103462       3.02727003      -1.19204171      -0.22783467      -0.00066255      -0.04959181
C        0.85383151       4.68052911       4.62137903       0.23585984      -0.08196505       0.09242023
C        0.56657352       3.55686169       5.61351528      -0.15901279       0.19488247      -0.12179264
C       -0.71693912       2.83903940       5.20241069       0.38942677      -0.11402655      -0.03191436
C       -2.05000390      -2.20726264       1.09719010      -0.00083836      -0.32815352      -0.43667665
C       -2.52151106      -2.94431695      -0.01648340       0.29821052       0.69823004       0.03700038
C       -2.35526679      -2.46678420      -1.31283896      -0.05893476      -0.08071842      -0.15068682
C       -1.71225735      -1.25979144      -1.48582118       0.04910943       0.12645754      -0.16241863
C       -1.21443699      -0.53522635      -0.39089586       0.05268021       0.12002321       0.26703066
C       -1.36677885      -1.01082920       0.89385344      -0.01423677      -0.08890888      -0.18217124
F        4.22527205       3.85821192      -5.29775977       0.03392728       0.09878593      -0.12861718
H       -6.54226445      -4.45940459       4.20907601      -0.01789336       0.03741250       0.06868798
H       -7.79030150      -4.27330088       2.97669165      -0.05345757       0.05242926      -0.00633747
H       -7.34095467      -5.89332881       3.55166739      -0.02060573       0.02946503       0.03844781
H       -5.58003367      -4.01750664       1.90177119      -0.05508915      -0.25624033       0.08349189
H       -7.45236363      -5.71885247      -0.56417917      -0.06072586       0.12556762      -0.00859641
H       -8.22950885      -4.93252302       0.82986870       0.06463833      -0.00325983      -0.07520362
H       -6.89476552      -4.10838330      -0.02401247      -0.06492250      -0.07591117      -0.01160483
H       -4.24478664      -8.46061993       4.51099604       0.09974694      -0.04460408       0.06515612
H       -1.84904608      -7.74239482       4.37122848       0.03679498      -0.04170065       0.02951857
H       -1.32924708      -5.65618814       3.09774110       0.02300166       0.00293284      -0.01550802
H       -4.32246165      -5.74077440       0.12935591       0.12608800       0.22676305      -0.21748790
H       -3.91935531      -4.79051555      -1.31012699      -0.05368512      -0.05462484       0.17064306
H       -1.54088708      -5.58601101      -1.13833501       0.06035929      -0.02310893      -0.03081548
H       -1.98892253      -6.57815606       0.25522519       0.02503125      -0.02261299       0.00451906
H       -2.67785436      -6.92894833      -1.33266609       0.02786063      -0.10362744      -0.06381034
H       -2.09135859      -3.39614579       4.31786642       0.08529532       0.09244782       0.05350501
H       -1.15817390      -2.01796326       3.70995051       0.02704985      -0.11185858       0.12177063
H       -1.84804843      -0.94031009       5.83753056       0.04274586       0.02170554       0.07944725
H       -3.54492540      -0.55803141       6.14027932      -0.03851219       0.05109770       0.08474290
H       -2.97598859      -2.22004060       6.29627166       0.01592271      -0.06963103       0.05816431
H       -4.58033639      -3.16837938       4.55340212      -0.05159182      -0.05931127       0.01643993
H       -5.31564402      -1.56533480       4.65944450      -0.07785496       0.02301589       0.05193655
H       -4.87871436      -2.23260849       3.08788629      -0.07494498      -0.06030322      -0.03261361
H       -4.02450640       0.41711717       3.85908943       0.14421579      -0.14454944      -0.03506486
H       -3.33596939      -0.36531531       2.42662432       0.00469990       0.06963814       0.23676113
H        0.21180584       1.61317326       3.67443820      -0.12331151       0.13383362       0.01801388
H       -1.03780231       4.09356860       2.75340269       0.23735235      -0.14082303       0.02845181
H        1.13122397       4.43639376       0.55935423       0.16968636      -0.22214069       0.09051533
H        3.91994140       3.51748445       0.54891708      -0.09344654       0.27059388      -0.22368923
H        5.26877356       4.40733737      -0.84984632      -0.14164911       0.24064820      -0.04696307
H        4.73339377       7.37888189      -1.25996838       0.05468706      -0.09688649       0.02296262
H        7.15878951       7.57860048      -1.46487079       0.07937915       0.02948137      -0.00661966
H        7.39298553       5.88441695      -1.03464764       0.05841875      -0.05112671       0.00904188
H        6.69292084       6.30185451      -2.59246164       0.05353343       0.01198024      -0.08024076
H        6.05913078       5.87662613       1.03646613       0.06049678      -0.04332497       0.03436597
H        5.99505855       7.63097762       0.85743114       0.04939460       0.03819668       0.07143158
H        4.51057857       6.70971320       1.10495080       0.06212847       0.03377146       0.06693971
H        1.58787823       3.29401633      -3.37562018       0.00423091       0.04801572      -0.15821053
H        1.94554494       4.70126735      -4.37359018       0.05012001      -0.02809039       0.05628886
H        1.74835559       3.34399012      -6.43928297      -0.09264208      -0.05827746       0.05796823
H        0.27259167       3.17252521      -5.44685812       0.22580708      -0.03286735      -0.08003820
H        2.24310097      -5.51197252      -4.30922018       0.06012093      -0.07900043       0.04127008
H        3.94063658      -5.11901474      -4.55996765      -0.02232393      -0.06189502       0.04095412
H        3.28297420      -5.11872862      -2.91540572      -0.01980044      -0.03993514      -0.04483602
H        4.33951905      -2.83452155      -2.92455642      -0.01265355       0.02786704      -0.02833192
H        4.66094806      -2.87944990      -4.66845729       0.02393435       0.04691645       0.06785545
H        3.63265643      -1.60702052      -3.99697308       0.11659699      -0.07417851       0.01184644
H        2.36420082      -2.18041224      -1.71081106       0.00049312      -0.01292712       0.02713220
H        0.64469578      -2.55994263      -1.60462788       0.04551042      -0.02195295      -0.00476584
H        1.83571835      -3.86630227      -1.57339510       0.02148092      -0.05160704       0.05295779
H       -0.60362101      -3.37686253      -3.65620780       0.02468647      -0.05435740       0.04486437
H        0.31731558      -4.09308944      -4.98374992       0.00800670      -0.01456237      -0.03521022
H        0.34573925      -4.83512310      -3.36942084      -0.02394489      -0.08707170       0.01971310
H        3.01704301       0.08121253      -5.62461527       0.02877361       0.24608052      -0.07669847
H        3.30025944       1.59438785      -6.51824178      -0.08311530      -0.14728991       0.03217605
H        4.79620797       1.52197771      -4.54649980      -0.05780942       0.00977227       0.11234924
H        3.41519953       1.24487140      -3.47981446       0.05916930       0.03067473      -0.14149972
H        4.73403806       6.83650050      -3.39848853      -0.06910408      -0.01588458      -0.03346756
H        3.80015775       5.79222701      -4.45217655       0.05110257      -0.00248026       0.12412247
H        3.02636254       6.53065540      -3.02259002       0.11817150       0.04134523      -0.09389342
H        2.32500006       1.71377548       1.31072229       0.01120664      -0.07585699       0.07750361
H        0.59218629       2.11615973       1.27431754       0.31639297      -0.04745131       0.01571659
H        2.53058604       1.97200223      -1.07195394      -0.33941019      -0.08370050       0.14289254
H        1.32351545      -0.12317364      -0.20971374       0.00986354       0.03570911      -0.07028020
H        0.99804287       0.29694158      -1.91383725       0.02699991       0.02927020       0.27340455
H       -1.13259785       1.39329923      -2.47001397      -0.04981758       0.08371272       0.30079028
H       -2.26355339       1.72718899      -1.12904952       0.09481682       0.03111044      -0.03932708
H       -0.74963949       3.36965557      -0.16969079       0.00062126       0.01413540      -0.10192286
H       -0.93383625       3.76089194      -1.90317205      -0.02523133      -0.08831911       0.14926286
H        1.81547336       5.15502676       4.81391163      -0.21760254      -0.05528865      -0.04176992
H        0.06192567       5.43611056       4.66365097       0.04977939      -0.02333922       0.03511223
H        0.46473253       3.97220091       6.61484879       0.04684328      -0.03406757       0.02744617
H        1.40020139       2.85348551       5.61095002      -0.00128929       0.05590821       0.05050967
H       -1.56705930       3.52208294       5.27510447       0.00009105      -0.07718491      -0.02253997
H       -0.90509621       1.98080117       5.84590112      -0.06694998       0.01839342      -0.01982153
H       -2.71598532      -3.01754363      -2.16835504      -0.00903837      -0.02008328      -0.03613184
H       -1.57295573      -0.86592060      -2.48318022       0.01629749       0.00567880      -0.00371326
H       -0.95311973      -0.44912212       1.71517216      -0.01330187       0.07042121      -0.02952689
