151
Properties=species:S:1:pos:R:3:MACE_forces:R:3 energy:=T -221.331658358612=T gnorm:=T 0.007087951795=T xtb:=T 6.7.1=T (edcfbbe)=T MACE_energy=-90873.45371600107 pbc="F F F"
C        9.89217471      16.21003783      20.73310889       0.14884267      -0.17639996      -0.30741718
N       10.71883104      13.56986719      21.32816241      -0.29125289       0.14212573      -0.03417286
O       10.50584458      14.93452689      18.73230646      -0.06523933      -0.06894273       0.20612721
C       10.99981044      15.51612813      19.93913237      -0.00891614       0.20766062       0.01046077
N       14.14112955      15.10674078      18.86952463      -0.26170883       0.05449689       0.16298409
O       16.34281167      18.74434028      22.68615196      -0.13857002      -0.69826026       0.15375999
C       10.24924546      15.85681139      17.69660253       0.11638100       0.00477952       0.11472566
N       19.03052185      21.01694694      22.51805589      -0.32843968       0.27244503       0.02135939
O       19.34862102      17.80359576      14.15783881       0.72257224       0.19805329      -0.29093387
C       11.59314666      14.37639009      20.74564604       0.38551426       0.12761736      -0.17375431
N       20.35975526      21.13416415      22.92784488      -0.58088689      -0.15118998       0.77050479
O       23.05661836      20.91225948      16.78910634      -0.35356385       0.29132723      -0.26211470
C       11.15360181      12.54846917      22.04414187       0.02383430      -0.18125559       0.09150257
N       21.96094568      21.85781176      19.74034898       0.17808734      -0.61917607       0.33530510
O       20.95160028      23.81699237      19.25218259       0.28551401      -0.11751268      -0.05224639
C       12.49876477      12.27472413      22.23446698       0.04121352       0.05074820      -0.03672312
N       22.35702485      23.04876671      16.73443012       0.18693503       0.26712736       0.15752763
O       19.72046017      21.15217027      17.99992362      -0.11256700      -0.04517610       0.03822535
C       13.42000469      13.11283677      21.63377707      -0.17654901       0.00786759      -0.03466373
N       20.67796665      19.40667544      13.25293572      -0.02255442       0.26826592      -0.17798552
O       22.51886001      21.39346882      22.34699986      -0.43456024      -0.19376403      -0.09466050
C       12.97794641      14.18653221      20.86178604      -0.19127894      -0.23873125       0.16715513
N       24.41967016      15.56487638      13.13197278       0.09013632      -0.06543811      -0.04308934
O       16.29754590      20.98531362      22.60383720       0.26727933      -0.46490698       0.05921693
C       13.97494080      15.06164689      20.23594121       0.14613302       0.20474379       0.29580002
N       18.05572747      18.98309430      18.60529656      -0.33149381      -0.17091122      -0.11146249
C       13.52251523      14.23135790      17.90514094      -0.06522259      -0.50168478      -0.19464393
C       14.35825558      12.97370950      17.67742966      -0.08958918       0.18433558      -0.01613893
C       14.87466862      15.90055908      20.85604147      -0.23392590      -0.27949453       0.05369058
C       15.05286169      16.11460565      22.32650865      -0.12077165       0.08285070      -0.02760755
C       14.35246414      17.35677546      22.92318823       0.22771650       0.16520384       0.06168258
C       14.53080002      17.34471138      24.44345848       0.07133708       0.01671851      -0.21966351
C       12.86286399      17.33679567      22.58459702       0.27647481       0.09075267      -0.02500469
C       14.94567909      18.65369022      22.36149154      -0.62279541       0.11456950      -0.07456724
C       16.88975736      19.93839548      22.75638311       0.17978456       1.13441492      -0.18915590
C       18.36736214      19.85745927      23.10251839      -0.09963179      -0.03208933       0.12963669
C       21.34288845      21.28409603      22.02430706       0.94684706       0.29578276      -0.65356211
C       20.89079378      21.34909761      20.56494972      -0.08043079       0.21346592      -0.10618725
C       21.86686580      23.01757651      19.08400368      -0.12360352       0.44824734      -0.09084501
C       22.97363341      23.25353402      18.05054039       0.02661293       0.03082011       0.20627421
C       23.64621367      24.62293079      18.21171794      -0.00063502      -0.20140348       0.06355910
C       24.81029121      24.75552963      17.23374397      -0.23742546      -0.04501281       0.04851699
C       24.14853875      24.76264064      19.64863410      -0.26800444       0.07034272      -0.09202579
C       22.47483907      21.83071750      16.20122207       0.52335690      -0.87022736      -0.03690744
C       21.87327381      21.51232027      14.81736902      -0.02023000      -0.46170325       0.12888281
C       20.42318486      21.05863816      15.01147717       0.06543942      -0.01590913      -0.18448130
C       19.83149791      20.47866212      13.72639643      -0.32564956       0.07493340       0.34467782
C       20.39649208      18.13111881      13.59482473      -1.32300759      -0.01530008       0.41792020
C       21.38042297      17.15266843      13.21595849       0.50312613      -1.12170370      -0.14013654
C       22.08866456      16.21238453      12.95376459      -0.41772051       1.03372789       0.21133635
C       23.07883498      15.17142130      12.66971263       0.10790457      -0.55183597      -0.19095870
C       24.49735375      15.80383615      14.56149147      -0.05060038       0.02276452       0.12488514
C       25.00000478      16.67856827      12.40424260      -0.03715121       0.01652785      -0.02810684
C       22.64437862      13.87869866      13.38129687       0.01533506       0.08913380       0.05431688
C       23.09225011      14.90720219      11.15554513      -0.01441752       0.07139288       0.07537417
C       21.99906050      19.86670393      12.89639949       0.51575350       0.08288933      -0.00283978
C       22.70800471      20.42275224      14.13410241      -0.08194579       0.04910052       0.06931323
C       21.51302171      24.11978815      16.24818192      -0.33601046       0.33467071      -0.16048082
C       20.42104981      19.97779950      20.05769210      -0.18276319       0.33975513      -0.22671080
C       20.26236197      19.94814532      18.52639759       0.32183338      -0.47612111      -0.01593816
C       19.39621405      18.74513248      18.11640150       0.38196777       0.25944526      -0.21097943
C       17.49732752      20.16450711      17.96854312       0.18996211       0.35535657      -0.04293545
C       18.36325597      21.35984168      18.35219374      -0.16408029      -0.00105882      -0.05100483
C       20.62466026      21.10984418      24.35861125       0.13892194      -0.17505122       0.01268522
C       20.01687250      19.84971775      24.96991232      -0.09822649       0.29213666      -0.01894362
C       18.52768750      19.79710228      24.63366389       0.25269215      -0.20889053      -0.16708727
C       15.63967490      16.50001358      19.81252274      -0.02404340      -0.21631935      -0.49211291
C       15.16354376      15.96666810      18.58931474       0.45351932       0.52656356       0.10388050
C       15.71517636      16.34329382      17.36870896      -0.05332630      -0.06423160      -0.12921135
C       16.70062493      17.30483132      17.37114828       0.11818433       0.07115859      -0.11806532
C       17.14967020      17.87529336      18.57188822       0.09988702       0.04052038       0.27430355
C       16.65916496      17.45046819      19.78686065      -0.00075306      -0.04828406      -0.13792754
F       21.90425381      22.63501521      13.97858109      -0.03009709       0.12032677      -0.07379738
H        9.08172713      15.50457444      20.88960268      -0.01320455       0.04722292       0.03856706
H       10.27736220      16.53073511      21.69545705      -0.00514394       0.04581310       0.06910126
H        9.52017112      17.08000637      20.19905485      -0.00998599       0.05809938      -0.00334870
H       11.79485410      16.23589985      19.68634175      -0.19174925      -0.20420405       0.07033005
H        9.76192714      15.29115114      16.90613312       0.04398294       0.11593496      -0.05052296
H        9.58850268      16.66243442      18.02321306       0.00165744      -0.02001799      -0.06029396
H       11.18416772      16.29115052      17.31947422      -0.10854049      -0.00607594       0.01198662
H       10.38242069      11.93104585      22.48343746       0.05289698      -0.10048438       0.07967535
H       12.81378552      11.43275941      22.82831699       0.00241945      -0.06371508       0.05119175
H       14.48106513      12.94102561      21.74155985       0.02394362       0.00629699       0.00067370
H       12.52493763      13.95915797      18.25583884       0.24292252       0.17498427      -0.17435602
H       13.42055150      14.78262799      16.96775975      -0.11755744      -0.04281429       0.14079858
H       14.43094887      12.39661763      18.59650627       0.00817289      -0.02083802       0.01205320
H       13.89345286      12.35721318      16.91344233       0.00931885      -0.09582101      -0.04646693
H       15.36139170      13.24145221      17.35300461       0.03341725      -0.04785616      -0.00615630
H       14.66500110      15.24171698      22.85378109       0.11682005       0.04756594       0.08475239
H       16.12091133      16.19780488      22.53520648      -0.05052236      -0.11965839       0.10250469
H       15.58517956      17.31326679      24.70667160       0.02383221      -0.00670986       0.05732427
H       14.09186481      18.23918371      24.87975999      -0.02230760       0.04758589       0.07917534
H       14.04030415      16.47665410      24.87368264      -0.03006641      -0.08516317       0.04512009
H       12.34537209      18.15531748      23.07871095      -0.07042756       0.04031475       0.03016347
H       12.71525377      17.43201229      21.51250390      -0.09039632      -0.01816106      -0.04726865
H       12.42396498      16.39763961      22.91252257      -0.07005563      -0.01689873      -0.00760699
H       14.43722549      19.52811015      22.77883019       0.06208164      -0.21757064      -0.07057396
H       14.85213784      18.68311557      21.27216812       0.03709575       0.02519325       0.19626774
H       18.79627513      18.95336390      22.65774139      -0.07086707       0.15323000       0.08448229
H       18.49839624      21.85656077      22.74221745       0.14437448      -0.15680079      -0.00756969
H       20.08244509      22.08347062      20.49074071       0.20502833      -0.28210327      -0.01655335
H       22.75110038      21.25043502      19.58101201      -0.12760929       0.28052270      -0.09774837
H       23.73408104      22.47411304      18.15315670      -0.15615146       0.22578085       0.00221409
H       22.91081011      25.40889397      18.03000060       0.03567587      -0.09113574       0.02110761
H       24.50047523      24.55227763      16.21307247       0.00876333       0.01275548      -0.10863192
H       25.22584528      25.75694983      17.27816137       0.07553341       0.08590668      -0.01665255
H       25.59314535      24.04824041      17.49920079       0.09220253      -0.04993790      -0.03007944
H       24.83872380      23.95916295      19.89484510       0.08798762      -0.04667730       0.01183353
H       24.66340214      25.71164792      19.76865794       0.05397723       0.03462724       0.07277903
H       23.32077516      24.72756255      20.35501625       0.05716830       0.02859575       0.02006828
H       20.43063558      20.28742447      15.78162881      -0.05429670       0.10268864      -0.11827641
H       19.80787731      21.87983877      15.37495350       0.08265386      -0.04971853       0.07748349
H       19.77208428      21.24456582      12.94909822      -0.02529180      -0.10587978       0.04898724
H       18.83698125      20.07484889      13.92370426       0.19170389       0.10618986      -0.08927308
H       24.22461543      14.90592417      15.10821884       0.00280495       0.06901264       0.06619350
H       25.52828726      16.04830105      14.81091683      -0.03493292      -0.01641134       0.01782405
H       23.85447169      16.63263428      14.89682759       0.06069140      -0.09938375      -0.04144067
H       24.40300530      17.59981574      12.48139308       0.05504384      -0.07093868      -0.03107519
H       25.98631900      16.87718822      12.81936871      -0.01671805       0.01674712      -0.03571295
H       25.12447790      16.41842275      11.35751127       0.01489965       0.11428083      -0.00880289
H       23.46423115      13.16657382      13.35567168       0.03599947      -0.04081711      -0.02363759
H       22.36035505      14.06774100      14.41337888       0.03292642      -0.03454385      -0.03292898
H       21.78392769      13.45292019      12.87306652      -0.03241971       0.01110641       0.01610403
H       23.91524158      14.23830712      10.92072708       0.04149995      -0.03819424      -0.02199908
H       22.15631798      14.43913021      10.86103734       0.01150422       0.02429570       0.00609339
H       23.19627687      15.82752011      10.58729840       0.02384360      -0.03299922       0.00227715
H       22.57224092      19.04044352      12.47455268      -0.13066938       0.28023670       0.01544670
H       21.89379507      20.65370220      12.14459821       0.01765592      -0.18767429       0.00080223
H       23.67476557      20.84379443      13.85273686      -0.03286862      -0.02961900       0.11009435
H       22.87810419      19.62890582      14.86323899      -0.00541793       0.11810366      -0.14402286
H       22.10888620      24.88030273      15.74222370      -0.10182101      -0.01481997      -0.00984722
H       20.76266054      23.75024360      15.55992865       0.13155228       0.05078962       0.04792423
H       21.00108962      24.55818673      17.10452684       0.06701866       0.00212994      -0.09818639
H       21.14720232      19.21377159      20.33537181      -0.02923477      -0.07049272       0.03285921
H       19.45944849      19.74617162      20.50951233       0.22649599      -0.06819881       0.08580446
H       21.24796583      19.87592988      18.05110404      -0.28117700      -0.04511416       0.12756654
H       19.78737160      17.83415661      18.56940495       0.00785248       0.04922808      -0.03042573
H       19.42721350      18.62662458      17.01763418       0.00608941      -0.01449936       0.21268053
H       17.46600248      20.06441960      16.86788706      -0.03344052       0.03952890       0.17607411
H       16.48129080      20.31537039      18.33873321       0.10408241       0.00449201      -0.08951876
H       18.26466866      21.53992433      19.42879110       0.00316922       0.02867302      -0.09879489
H       18.06029788      22.25778683      17.81139340      -0.04040448      -0.09253543       0.12491715
H       21.70615949      21.14442412      24.48501413      -0.21172812       0.03485175      -0.00299642
H       20.17985566      22.00210030      24.81325427       0.05451355      -0.05585616      -0.00270464
H       20.16301304      19.86238492      26.04849623       0.02783855      -0.05135551       0.00791456
H       20.51707379      18.97204424      24.55996391       0.04140675       0.01601204       0.06750565
H       18.01395097      20.65124224      25.08030895      -0.04093685      -0.04996720      -0.03321700
H       18.07667079      18.88209496      25.01323891      -0.06543252       0.02156112       0.01432615
H       15.37829685      15.91026323      16.43969254      -0.00888748      -0.02202295      -0.05261771
H       17.13694807      17.62246253      16.43410277       0.00536065       0.04439658       0.00063798
H       17.05724722      17.87507538      20.69223978       0.00492348       0.07175020      -0.06071815
