151
Properties=species:S:1:pos:R:3:MACE_forces:R:3 energy:=T -221.330558300786=T gnorm:=T 0.005583693346=T xtb:=T 6.7.1=T (edcfbbe)=T MACE_energy=-90873.32376435211 pbc="F F F"
C        9.31430739      15.62411472      21.25848572       0.17205893      -0.15402806      -0.31914541
N       10.64188613      13.25830956      21.99493443      -0.30076659       0.09756440      -0.05457650
O       10.10146592      14.31945462      19.31677529      -0.02191067      -0.00336786       0.25359272
C       10.49810575      15.09088467      20.45282645      -0.03142122       0.17892725      -0.06807148
N       13.72415342      15.13391188      19.24568985      -0.25859787       0.09309493       0.18587855
O       15.73389475      19.06535237      22.91648357      -0.15862581      -0.59741337       0.21430622
C        9.30794382      15.00695263      18.37424046       0.10274964      -0.08201845       0.09878761
N       18.60350259      21.13841410      22.61741295      -0.25231282       0.23971199       0.01101996
O       21.19809724      17.28120105      13.20086509       0.72362341       0.53296230      -0.08976504
C       11.33361829      14.15233026      21.29974461       0.29765239       0.12884454      -0.15088449
N       19.91821732      21.13688051      23.09155964      -0.71951326      -0.01655565       0.83089129
O       23.75873465      21.02742171      17.30971491      -0.36029513       0.11395026      -0.31731235
C       11.27751354      12.38332468      22.74987693       0.08703183      -0.17931108       0.12065273
N       21.68770977      21.65082624      19.97095511       0.08348078      -0.74758691       0.23153105
O       20.92727676      23.76737651      19.89329034       0.23185774      -0.11640750       0.00071228
C       12.65888037      12.35032479      22.87098038       0.00322395       0.08169592      -0.06827468
N       22.42602530      22.84351913      17.28198439       0.02567313       0.24523183       0.17425320
O       19.59959948      20.90392402      18.06819264      -0.16599320       0.03183071       0.00908203
C       13.38734983      13.28125375      22.15574337      -0.16215692      -0.06624009      -0.02013614
N       22.14111542      19.34435490      13.28819697      -0.00949111       0.38116426       0.08540772
O       22.11686431      21.14418635      22.60199250      -0.64305232      -0.11770158      -0.12319833
C       12.73167690      14.20613404      21.33954738      -0.11433255      -0.25276640       0.19465051
N       24.70327680      14.84125268      10.76700649       0.14279822      -0.04267438      -0.08748455
O       15.89212942      21.21700574      22.30737598       0.22529738      -0.44821382       0.23479402
C       13.56972270      15.16900290      20.61335191       0.14990947       0.27454274       0.26762126
N       17.66059581      18.99256152      18.72360897      -0.24460268      -0.18635882      -0.10991322
C       13.16549385      14.14417951      18.35904026      -0.01027795      -0.57070734      -0.18907385
C       14.06980417      12.91673480      18.25565448      -0.09989022       0.21048090      -0.02432200
C       14.40507034      16.11498592      21.16479172      -0.22056096      -0.25392055       0.07862226
C       14.51610736      16.46843394      22.61272462      -0.11665400       0.03828944      -0.04516918
C       13.72164322      17.72188409      23.05118444       0.22020077       0.17032217       0.08170154
C       13.72338450      17.79091706      24.58058109       0.07239758       0.00715292      -0.21724907
C       12.28376292      17.65380645      22.54115121       0.28085661       0.10385089      -0.01148659
C       14.36421407      18.99609932      22.49230464      -0.55734817       0.06388995      -0.16966011
C       16.37938760      20.20161371      22.75271368       0.26008137       1.01634363      -0.40391436
C       17.81656852      20.07969201      23.23105827      -0.20470589      -0.00324277       0.16357732
C       20.94746536      21.14480742      22.23285040       1.20972288       0.14472124      -0.62691754
C       20.56292587      21.19156211      20.75053893      -0.04280348       0.25773384      -0.09529856
C       21.76351822      22.92565632      19.58012471      -0.11674411       0.49637918      -0.07855338
C       22.90618957      23.22799954      18.60998081       0.15879415       0.22651970       0.17649828
C       23.34306413      24.69917819      18.67882564       0.04857206      -0.17339456       0.05858129
C       24.35767985      25.02079840      17.58526192      -0.24668689      -0.08878858       0.06074830
C       23.94416840      24.96981812      20.05716508      -0.28376016      -0.02450990      -0.09384521
C       22.95554715      21.75462279      16.71892411       0.66889094      -0.69781276       0.00828148
C       22.55331363      21.35991441      15.29081121       0.22606194      -0.52342691       0.13081257
C       21.37193049      20.38752235      15.35136953      -0.04379009       0.22715504      -0.15677285
C       20.99540502      19.93281387      13.94353524      -0.36797306      -0.13143392       0.23506560
C       22.15218906      18.03654597      12.98453692      -1.33089712      -0.78801907       0.13602343
C       23.32405739      17.53864970      12.31674647       0.99188360      -0.65844391      -0.55992507
C       24.21882020      16.99824699      11.71595665      -0.91471558       0.55998590       0.64046746
C       25.18714156      16.22273248      10.94354438       0.48143663      -0.10744631      -0.33969491
C       23.42838584      14.75718203      10.07503518      -0.14994594       0.03903979      -0.00052884
C       24.64467511      14.08295234      12.00424773      -0.03323854       0.00725960       0.14513617
C       25.37057563      16.89132238       9.56986749      -0.10428986      -0.04132527       0.06322264
C       26.54139801      16.22610647      11.66742708      -0.11760679      -0.04903899       0.04279800
C       23.27727829      20.22652192      13.17088558       0.37653462       0.24297811       0.04358302
C       23.72691513      20.70572946      14.55483874      -0.19349317       0.10128774       0.03995285
C       21.31770506      23.61972676      16.76398704      -0.39306156       0.20652014      -0.22677705
C       20.03966062      19.83550164      20.27053770      -0.08118488       0.28955454      -0.26627275
C       19.96907815      19.70766317      18.73561605       0.20003224      -0.40010593       0.12692894
C       19.00166662      18.56791757      18.37234823       0.40069576       0.20764147      -0.17081304
C       17.28724159      20.14777135      17.92978713       0.21497435       0.33459654      -0.04032569
C       18.24776495      21.28090991      18.28081334      -0.19276456       0.00581692      -0.09872191
C       20.10820149      21.19977500      24.53310880       0.15875461      -0.19936009       0.02920453
C       19.32704305      20.07489818      25.20889311      -0.05777454       0.27969649      -0.04327143
C       17.86450082      20.13055109      24.76957753       0.24295598      -0.29067863      -0.11571261
C       15.13818590      16.68225944      20.08113616      -0.06717581      -0.32274361      -0.42897118
C       14.69046354      16.03521070      18.90066325       0.44222959       0.59397426       0.07034723
C       15.23051749      16.34985768      17.65784818      -0.05072463      -0.08443399      -0.17079189
C       16.21008684      17.31632221      17.60014977       0.12055946       0.05630768      -0.06096311
C       16.66955668      17.95937356      18.75936320       0.05606451       0.08330287       0.23678086
C       16.15041725      17.63747657      19.99505116       0.02098138      -0.01765643      -0.16739151
F       22.19283597      22.48779481      14.54378382      -0.08421733       0.10713738      -0.06205992
H        9.68232186      16.11828052      22.15200674      -0.01887006       0.05071798       0.06268789
H        8.74205296      16.34006785      20.67641736      -0.03349653       0.07235450      -0.00575418
H        8.68028281      14.79273443      21.54970741      -0.03747924       0.03487601       0.01463675
H       11.12028017      15.93236605      20.10154229      -0.13500449      -0.25077129       0.12066357
H        9.72473838      15.99430006      18.15974741      -0.03033553       0.03566670      -0.05186671
H        9.32474060      14.39954500      17.47209064      -0.06776290       0.10454388      -0.03052290
H        8.27695956      15.10958729      18.71776488       0.00480962       0.05500070      -0.03044783
H       10.64696888      11.68354050      23.28116073       0.06551178      -0.07338102       0.07571675
H       13.14407749      11.62090255      23.49828398       0.01708471      -0.05056695       0.05242625
H       14.46637099      13.29717750      22.20706662       0.01643951       0.01384461      -0.00582305
H       12.18108011      13.84886135      18.72763860       0.22323092       0.18125816      -0.19734101
H       13.04248153      14.60186140      17.37475284      -0.09513558      -0.03033645       0.16187987
H       14.15213949      12.42785151      19.22349878       0.01143560      -0.02724749       0.02137601
H       13.65282406      12.21118618      17.54386788       0.00338055      -0.10626034      -0.05389166
H       15.06507320      13.20560993      17.92548313       0.03914674      -0.03636133      -0.01295689
H       14.14933955      15.62774082      23.20388337       0.10675727       0.07698197       0.05980542
H       15.56595371      16.63162491      22.85956239      -0.05496413      -0.14025143       0.11452277
H       14.74225128      17.83078467      24.95585316       0.03524246      -0.00786639       0.08877085
H       13.19277810      18.67690731      24.92088000      -0.02866350       0.06789932       0.06756203
H       13.23249559      16.91599558      24.99784390      -0.02319430      -0.06491255       0.03883273
H       12.26253556      17.65775837      21.45486864      -0.07343988      -0.01712223      -0.04005673
H       11.81363272      16.73943413      22.89190891      -0.07231305      -0.03794745       0.00702780
H       11.71016685      18.50384186      22.90020185      -0.09846471       0.04475798       0.04456440
H       13.84234559      19.88945485      22.84843171       0.06448840      -0.18467608      -0.05383710
H       14.34362573      18.99820334      21.39865073       0.02433848       0.02211992       0.20214420
H       18.21652477      19.11751411      22.89458015      -0.05485433       0.15584766       0.04949894
H       18.15396700      22.03695843      22.79141380       0.13969796      -0.16221731      -0.07439611
H       19.79282186      21.96111253      20.63510254       0.20177025      -0.32573929      -0.00906903
H       22.43180986      21.00158847      19.76095651      -0.05545577       0.30440035      -0.02021729
H       23.76151463      22.58222286      18.83182821      -0.23145216       0.18809074      -0.05987324
H       22.45745027      25.32929562      18.56118575       0.10427617      -0.09297687       0.01285050
H       23.94183245      24.85394022      16.59557199       0.04487985       0.02118605      -0.07553150
H       24.66043705      26.06124671      17.65935333       0.07293373       0.06046670      -0.02170754
H       25.23934757      24.39337670      17.69565421       0.10684148      -0.02766008      -0.02143508
H       24.83699207      24.36753619      20.20970116       0.08209228      -0.02513593       0.00484374
H       24.21273563      26.01846988      20.14629126       0.05101936       0.05398149       0.06872437
H       23.22773302      24.72961964      20.83913008       0.03085724       0.04494073       0.06701830
H       21.68718354      19.53013804      15.94963270      -0.04627490       0.06916045      -0.03442024
H       20.51591247      20.84545876      15.84776266       0.12764490      -0.06410038      -0.01086903
H       20.65626517      20.79267426      13.35718088       0.00309525      -0.12004995       0.04226191
H       20.20576113      19.18056559      13.97918995       0.14437414       0.19319645      -0.04416373
H       23.49814606      15.22772548       9.09969491      -0.08148101      -0.01552296      -0.01622409
H       23.19154765      13.70487450       9.92546922       0.00082661       0.04917373      -0.01646628
H       22.60415990      15.22065735      10.63896166       0.10729346      -0.04792937      -0.08701122
H       23.99879210      14.55262971      12.76297781       0.09725302      -0.05607293      -0.08185419
H       24.24279972      13.09648333      11.78072795       0.02860967       0.02179511       0.02469813
H       25.64270843      13.95410837      12.41286588      -0.05042812      -0.03127315       0.08029495
H       25.89301199      16.20511627       8.91076804       0.06277489      -0.03869407      -0.03898791
H       24.41705474      17.16297927       9.12572847       0.03184140      -0.02843103      -0.01337830
H       25.95800404      17.79826068       9.68040672      -0.01084511       0.03822647       0.00142042
H       26.43486394      15.96986939      12.71771289       0.01955249      -0.01863830      -0.02560477
H       27.20233861      15.51187727      11.18535538       0.04942912      -0.03367601      -0.03531838
H       26.98390125      17.21655810      11.60771826      -0.00654512       0.01578552       0.01814037
H       24.09061605      19.70128445      12.67063798      -0.15598875       0.21964394       0.06242530
H       22.98268742      21.09307732      12.56965563       0.10454500      -0.16841684      -0.02540830
H       24.53410575      21.43019933      14.44745400      -0.00986892      -0.01767506       0.08153559
H       24.08639357      19.87392771      15.15929184      -0.02401410       0.08557793      -0.06821432
H       20.64380414      22.99715921      16.18527890       0.07740770       0.09587295       0.03415022
H       20.76070551      24.02049106      17.60761940       0.02519470       0.03193951      -0.07033370
H       21.66806777      24.44210429      16.14116426      -0.08032608      -0.05075497      -0.01151160
H       20.68733069      19.03965535      20.63951450      -0.05157532      -0.07176768       0.01923840
H       19.03747679      19.69825897      20.67236215       0.21589274      -0.06131433       0.09776467
H       20.96541093      19.48830319      18.33675573      -0.20761726      -0.03302855       0.09238171
H       19.25330330      17.67263651      18.94151488       0.00261124       0.04359700      -0.05531971
H       19.10036384      18.34120500      17.29472413      -0.01770198      -0.00814986       0.19426110
H       17.34054375      19.94411240      16.84460295      -0.06007652       0.05094753       0.15741052
H       16.26872578      20.44080052      18.18646037       0.06733397      -0.01488959      -0.05979517
H       18.08958177      21.57471576      19.32409838       0.00377032       0.00588069      -0.08931970
H       18.08715937      22.14586904      17.63542870      -0.05403926      -0.07436360       0.14116931
H       21.17927050      21.11694978      24.71768910      -0.21986799       0.07186891      -0.01675143
H       19.75626863      22.17435575      24.88963621       0.03819455      -0.06102583       0.00828226
H       19.40262231      20.18337604      26.28947550       0.02640462      -0.05925647       0.01190658
H       19.75798737      19.11425166      24.92474813       0.02834706       0.03030011       0.05865221
H       17.40417384      21.05960982      25.11386797      -0.04309489      -0.04108187      -0.04003627
H       17.30503177      19.29153232      25.18061892      -0.04657221       0.06214782       0.00666282
H       14.90269228      15.85336483      16.75720641      -0.02076009      -0.02590749      -0.02891310
H       16.64309257      17.57781923      16.64521100       0.00200286       0.03054523      -0.01288555
H       16.54291750      18.12429374      20.87189864       0.01464930       0.05852996      -0.02896388
