151
Properties=species:S:1:pos:R:3:MACE_forces:R:3 energy:=T -221.331335145154=T gnorm:=T 0.007256495814=T xtb:=T 6.7.1=T (edcfbbe)=T MACE_energy=-90873.331992112 pbc="F F F"
C       10.09221640      15.33484091      20.01002449       0.24107535      -0.19408331      -0.27426895
N       11.30340294      13.06752217      21.18574543      -0.29188214       0.04748966      -0.11462700
O       11.28908821      13.96666425      18.35535748      -0.06357404      -0.02951527       0.23202992
C       11.43188874      14.79561152      19.50897191      -0.07440094       0.21567843      -0.03151596
N       14.68713020      14.91072433      18.89926187      -0.33881034       0.07220544       0.13744098
O       15.92012582      19.24239933      22.40738392      -0.08970110      -0.70066757       0.15157931
C       11.02466735      14.66647846      17.15984140       0.02776317       0.02726107       0.11852401
N       18.52017847      21.58268971      22.59011933      -0.23596766       0.33762697      -0.00609406
O       19.13365222      18.63727394      13.84108159       0.73708478       0.07265801      -0.11902680
C       12.09059325      13.94047741      20.57414943       0.34845902       0.16233280      -0.14909249
N       19.79478591      21.70041844      23.15735871      -0.74398189      -0.00288050       0.72065784
O       23.11511956      20.84769858      17.25135403      -0.22563098       0.31541654      -0.29797786
C       11.80244047      12.29730580      22.13516326       0.05357526      -0.14344991       0.18697480
N       21.90721510      22.05331719      20.20946308      -0.01631779      -0.57075124       0.41457817
O       21.20508665      24.04965753      19.43300515       0.25298699      -0.17202694      -0.01698425
C       13.12246902      12.36790126      22.55387249       0.00058478       0.03683261      -0.08363145
N       22.81062182      23.07408410      17.17492428       0.14319455       0.29636657       0.25279169
O       19.95274145      21.29785459      18.13824424      -0.10885700      -0.03644233       0.05352678
C       13.95361533      13.26799012      21.91473707      -0.12412409      -0.02695542      -0.05863960
N       20.92925949      19.93282833      13.33451334       0.08160302       0.28343294      -0.17031564
O       22.02508513      21.80162724      22.87302023      -0.58480859      -0.17432982      -0.15825373
C       13.44974511      14.07109632      20.89127516      -0.16321800      -0.24171139       0.18138486
N       22.08345117      14.65033174      11.64882803      -0.04485356       0.04432357      -0.01872323
O       15.73733304      21.47974839      22.44346247       0.31282057      -0.40903698       0.05064534
C       14.35253343      15.02016905      20.23257028       0.09370314       0.31355591       0.29846208
N       18.16122723      19.19951661      18.56905668      -0.24878774      -0.26456512      -0.14331771
C       14.44570845      13.75014042      18.07815002       0.08862793      -0.56890285      -0.10317724
C       15.54441752      12.70640849      18.27622425      -0.12828886       0.18510603      -0.08730990
C       15.00432111      16.08829284      20.80571413      -0.14696586      -0.32138242       0.02933068
C       14.90637292      16.55046013      22.22383406      -0.14015259       0.05976093      -0.07155057
C       13.98012863      17.76511606      22.47103747       0.20498143       0.19871005       0.07957738
C       13.78577995      17.92891895      23.98111112       0.09946530       0.06434710      -0.13532589
C       12.62530148      17.55163849      21.79604471       0.28690579       0.16601314       0.03854217
C       14.59224571      19.05453525      21.90222454      -0.71815885       0.01843371      -0.20901310
C       16.37297132      20.46133564      22.60622761       0.15273213       1.09855981      -0.10043164
C       17.80180185      20.43004031      23.12583018      -0.18416458      -0.07948529       0.16439149
C       20.89810362      21.73251615      22.39272116       1.15845249       0.17594147      -0.49930873
C       20.67567579      21.70351393      20.87969864       0.02640758       0.20174458      -0.13717383
C       22.03437706      23.14667461      19.45272734      -0.06043543       0.39853867      -0.14130228
C       23.28173850      23.15999367      18.56028172       0.02931662      -0.00524098       0.18398720
C       24.18779868      24.36903679      18.82815544      -0.02134417      -0.18254029       0.05494926
C       25.44107489      24.28907887      17.95974143      -0.26862959       0.06502174      -0.00316484
C       24.56433820      24.38217698      20.30919702      -0.24156334       0.11583349      -0.12756955
C       22.77515645      21.85671059      16.62647068       0.35072497      -0.92357683      -0.01603603
C       22.30568831      21.67221085      15.17105897      -0.12383703      -0.44146530       0.12341501
C       20.77849480      21.55730314      15.13939026       0.08429247      -0.05704724      -0.13867746
C       20.27235945      21.14873444      13.75473180      -0.38570890       0.19269146       0.25645365
C       20.31450211      18.74464233      13.50149660      -1.23210813       0.08499947       0.19752580
C       21.11538009      17.57884976      13.22653900       0.28849787      -1.15196832      -0.09167951
C       21.64764456      16.51151025      13.05754073      -0.24958035       0.99035826       0.11477609
C       22.38621139      15.25355488      12.95192339      -0.02622908      -0.24650996       0.21421859
C       22.57673479      13.30150696      11.46363063      -0.01860990       0.00682171       0.04856779
C       22.43661110      15.48571101      10.51857438      -0.03975379       0.03753555      -0.06141858
C       23.88105054      15.55973215      13.18600089      -0.10516406      -0.04088711      -0.09983848
C       21.85577199      14.36661014      14.09091234       0.08529211      -0.00409701      -0.04980885
C       22.35940146      20.08533096      13.20728717       0.49660031      -0.01139422       0.13042910
C       22.96523061      20.42533780      14.57184138      -0.13520852       0.09738603       0.02175774
C       22.25849025      24.29124404      16.61724868      -0.26072562       0.37532852      -0.18893241
C       20.19695684      20.32536782      20.39961386      -0.15118694       0.26120669      -0.30529335
C       20.35459419      20.15165326      18.87687981       0.32828077      -0.48137532       0.13466633
C       19.57171658      18.91332460      18.41945912       0.38767188       0.27088958      -0.16133435
C       17.78374464      20.28791630      17.68885380       0.23235261       0.36275621      -0.03773126
C       18.55247061      21.52396858      18.15608608      -0.14266744      -0.03949027      -0.12081515
C       19.86410516      21.75403585      24.60995888       0.18394276      -0.19672059       0.06105012
C       19.19320985      20.51479277      25.19776197      -0.07837597       0.25159113      -0.03906186
C       17.76438132      20.41725542      24.66704128       0.27510646      -0.19026494      -0.12781888
C       15.80235187      16.66457457      19.77411528       0.06445382      -0.31567989      -0.42306048
C       15.58083800      15.90163379      18.60056411       0.33099585       0.62053503       0.05829047
C       16.21054370      16.22189986      17.40118499      -0.02415179      -0.11365344      -0.10977040
C       17.05612059      17.30980721      17.37847635       0.14759806       0.10367266      -0.11238811
C       17.29964872      18.05855556      18.53929342       0.01720187       0.12384051       0.28103074
C       16.69682909      17.73131272      19.73378420      -0.00945128      -0.06039277      -0.13450488
F       22.70758695      22.76065799      14.38264463       0.00955984       0.14132107      -0.10661087
H       10.25340086      15.93618091      20.89874275      -0.02784508       0.05748351       0.08139619
H        9.62161496      15.95444763      19.25208832      -0.02910073       0.06260763      -0.01828931
H        9.44417024      14.49917815      20.25440334      -0.04298188       0.04777034       0.00924529
H       12.10036803      15.63378095      19.25541823      -0.15187658      -0.22705443       0.06841436
H       11.78749588      15.43569635      16.98138910      -0.08580995      -0.07858811      -0.03360878
H       11.05873371      13.92126804      16.36666453      -0.01721256       0.16279259      -0.03176429
H       10.03609851      15.13690838      17.17144718       0.10160045      -0.03578545      -0.03749721
H       11.10679362      11.60237347      22.58545090       0.03991018      -0.05137222       0.08426552
H       13.48506517      11.73490419      23.34684357       0.01865906      -0.05797620       0.04477009
H       14.99528288      13.35281296      22.18876701       0.01639369       0.01185598      -0.00722088
H       13.47382827      13.32485496      18.33759969       0.23452562       0.19895617      -0.18288151
H       14.41489634      14.06875594      17.03415070      -0.11871749      -0.02376756       0.13870441
H       15.56458843      12.37709719      19.31239907       0.00759382      -0.03303376       0.02280519
H       15.35931024      11.84654797      17.64047272       0.02750904      -0.11125239      -0.04419891
H       16.51525035      13.12960364      18.02707715       0.03800045      -0.04282469       0.00438505
H       14.52881333      15.72813511      22.83244549       0.08753232       0.06892240       0.06899333
H       15.90462996      16.81175339      22.57677114      -0.04627506      -0.13587957       0.13040632
H       14.74712123      18.08589440      24.47374661      -0.11245885      -0.01670197       0.02789704
H       13.14100108      18.78492867      24.18820031       0.05872071      -0.03891974       0.04897079
H       13.31970170      17.03832526      24.40025642       0.01967911       0.00958634       0.01734125
H       12.73733041      17.51916721      20.71568567      -0.05819601      -0.04948686      -0.05196440
H       12.19368842      16.61159817      22.12705419      -0.08019355      -0.05248714       0.00440724
H       11.94248925      18.35990153      22.04472444      -0.09632575       0.02951735       0.02915985
H       13.98650712      19.92560735      22.17114873       0.09340940      -0.22632890      -0.05595294
H       14.65834811      18.99485332      20.81227149       0.03231577       0.05589499       0.20015585
H       18.29621410      19.52180456      22.76608941      -0.06744571       0.18601210       0.07586220
H       17.97375587      22.42744357      22.76706228       0.17968464      -0.22798986      -0.05969698
H       19.95033771      22.47751129      20.61367693       0.16745016      -0.25029636       0.02937466
H       22.64319195      21.36449975      20.23424856      -0.04849433       0.28189224      -0.16519962
H       23.85750784      22.24659704      18.73954924      -0.11726032       0.27212850      -0.01560875
H       23.63862155      25.28722959      18.60791985       0.01607034      -0.10578009       0.02038198
H       26.07207571      25.15587583      18.13343273       0.07922632       0.04101720      -0.00907329
H       26.00843386      23.39466523      18.20627738       0.07851391      -0.07165247       0.00601032
H       25.18883525      24.25023516      16.90350174       0.04782310      -0.00282120      -0.07181042
H       25.08167329      23.46545142      20.58480449       0.06451448      -0.03776141       0.01538628
H       25.21366474      25.22675711      20.51900002       0.07224208       0.02313949       0.08059000
H       23.67560745      24.47050982      20.93168903       0.05869738       0.00703950       0.05952376
H       20.49537558      20.80709146      15.87881392       0.00502853       0.09669436      -0.14343344
H       20.31885774      22.49863484      15.43652097       0.05325958      -0.05941828       0.08929523
H       20.48954448      21.93429160      13.02547587      -0.05602118      -0.11624169       0.04199401
H       19.19649081      20.96632327      13.78832959       0.24059516       0.06546058      -0.05638678
H       22.21504440      12.94552636      10.50005515       0.04408799      -0.04512204       0.04670799
H       23.67517995      13.23268531      11.45928608      -0.05284220      -0.02431683       0.01434826
H       22.18055115      12.64706744      12.23480275       0.07318262      -0.05996446      -0.05307689
H       21.91879878      15.10494899       9.63790877       0.07114978       0.07185745       0.00908133
H       22.10374949      16.50614262      10.70068498       0.06371429      -0.08374142      -0.13801476
H       23.51623908      15.49205264      10.30350934      -0.06367087       0.04096105       0.02043452
H       24.00985750      16.02527393      14.15931690       0.01240340       0.00534424       0.03973951
H       24.45752869      14.63898162      13.16056506       0.04738174      -0.04097581      -0.00548841
H       24.25988813      16.23909421      12.42635102       0.03252150      -0.00452295       0.00434250
H       21.81606958      14.94647970      15.01005883       0.04305902      -0.04415552      -0.01137447
H       20.85194155      14.02564661      13.85265955      -0.00208943      -0.00428834       0.00435308
H       22.50546112      13.51129355      14.25187416       0.01406076      -0.07419680       0.01421750
H       22.79337256      19.16251925      12.82080367      -0.04375341       0.29244260       0.01676198
H       22.55320113      20.90145746      12.50605958      -0.01751956      -0.18902635      -0.02499095
H       24.03573215      20.60615927      14.47207676      -0.02722032      -0.02050246       0.09986817
H       22.81789308      19.59999736      15.26934315       0.05421616       0.10472211      -0.11822454
H       21.70068981      24.79813887      17.40426632       0.09569712      -0.01457824      -0.09065646
H       23.05432041      24.93876510      16.25131833      -0.07339169       0.02906494      -0.05308510
H       21.57852012      24.08420113      15.80078449       0.14339039       0.01056588       0.06048145
H       20.78381445      19.54275368      20.88503260      -0.06785784      -0.02522844       0.00622732
H       19.14629207      20.20167084      20.65770320       0.22760116      -0.07471619       0.11971449
H       21.41106563      20.03471087      18.61088829      -0.31416284      -0.02736308       0.09234685
H       19.83173051      18.05837525      19.04464589       0.01293438       0.06055203      -0.06156490
H       19.84101241      18.67797659      17.37228659      -0.03978764       0.00378050       0.23061479
H       18.02735422      20.07681526      16.63182456      -0.09664384       0.05218705       0.14027388
H       16.71126336      20.46383890      17.77638303       0.07223134       0.00114490      -0.03692855
H       18.22212209      21.79206737      19.16636655      -0.01296561       0.02285211      -0.10010973
H       18.38950760      22.37074150      17.48881303      -0.05502617      -0.07351596       0.08951499
H       20.91820608      21.81190528      24.88128674      -0.23082956       0.03913928      -0.04502949
H       19.35159693      22.66081634      24.94933548       0.05256289      -0.05361101       0.00876568
H       19.19018328      20.57958033      26.28506520       0.03224278      -0.04432902      -0.00681865
H       19.75726101      19.62833718      24.90337992       0.01139095       0.04424292       0.07525862
H       17.17478702      21.26846160      25.01678386      -0.01547890      -0.06854899      -0.05324044
H       17.28774527      19.50005113      25.01076095      -0.06501864       0.03962964       0.00507049
H       16.04712329      15.64395913      16.50482462      -0.01335985      -0.03357293      -0.04353166
H       17.54564445      17.58741139      16.45442741       0.00752482       0.01443744       0.00230781
H       16.93102143      18.30289274      20.61491656       0.02259139       0.05236747      -0.08242306
