151
Properties=species:S:1:pos:R:3:MACE_forces:R:3 energy:=T -221.329731481174=T gnorm:=T 0.009434279210=T xtb:=T 6.7.1=T (edcfbbe)=T MACE_energy=-90873.31757269679 pbc="F F F"
C        9.57071413      15.52495842      20.30274234       0.24727969      -0.16497225      -0.21948481
N       10.66272113      13.32547233      21.63354452      -0.27674591       0.11206403      -0.13015518
O       10.94154739      14.21903490      18.73321543      -0.06643318      -0.02890842       0.18585495
C       10.95610048      15.00640462      19.92245159      -0.04198152       0.24810705      -0.00093181
N       14.23471822      14.77375845      19.35448613      -0.32074098       0.09956230       0.14695488
O       15.52931879      19.30439103      22.66361433      -0.15995047      -0.54788744       0.28601636
C       10.66837884      14.94355056      17.55381389       0.02395933       0.04387091       0.15530802
N       18.37311066      21.42138248      22.25753336      -0.32562139       0.39099270      -0.03869386
O       19.79061702      18.49754636      13.33041162       0.92847233       0.16673087      -0.14316378
C       11.52391170      14.11895650      21.01406136       0.34003211       0.13883850      -0.12184581
N       19.63237743      21.57129386      22.84640921      -0.74210639       0.05533719       0.79100491
O       23.52747976      20.44105060      17.20756113      -0.26563333       0.38230789      -0.30775568
C       11.09332898      12.52834452      22.59545617       0.01755334      -0.19856995       0.16340502
N       21.90376302      21.55851231      19.98102006      -0.22910328      -0.61100376       0.10146317
O       21.80973328      23.79987471      19.73363867       0.17115950      -0.36701270       0.06327526
C       12.41460704      12.48433858      23.01094535       0.02768643       0.02668652      -0.03047187
N       23.28223485      22.67707805      17.35410552       0.21528300       0.12859767       0.16917581
O       19.25654214      21.26045921      18.07806946      -0.10641816      -0.03920425       0.00807825
C       13.32170346      13.30784543      22.36895884      -0.12668587      -0.01555293      -0.07750687
N       21.54334738      19.92740992      13.14628072       0.15165564       0.36192431      -0.03716978
O       21.87022091      21.67015760      22.63215203      -0.78561426      -0.23223555      -0.16827608
C       12.88781990      14.14078420      21.33976222      -0.17833272      -0.19514739       0.16141144
N       24.33951073      15.63786243      11.20828238      -0.00693913      -0.06767541       0.00959120
O       15.68651233      21.34538375      21.74930533       0.28173772      -0.49448707       0.30219578
C       13.85512533      15.00874064      20.65717566       0.06331641       0.27352023       0.26866340
N       17.71816739      19.01015905      18.72322581      -0.22952757      -0.22251073      -0.17373080
C       13.95291617      13.57978145      18.59844279       0.03120067      -0.57245469      -0.07982550
C       15.00623185      12.50286646      18.85345294      -0.11853824       0.19065029      -0.09261441
C       14.50873856      16.11024499      21.16161354      -0.18722911      -0.31438070       0.09224994
C       14.42183389      16.62826124      22.56292202      -0.11914326       0.07642509      -0.03399257
C       13.55809380      17.89097531      22.79336222       0.20357582       0.12704398       0.07976348
C       13.43473787      18.12330485      24.30222866       0.10303915      -0.02741691      -0.20303095
C       12.16860903      17.70611632      22.18608429       0.26265214       0.13223882      -0.00681385
C       14.19888753      19.12479482      22.15002910      -0.53185108       0.07576521      -0.27125204
C       16.16719665      20.41945735      22.36791744       0.17231140       1.00147481      -0.54863231
C       17.57414376      20.41083824      22.94341264      -0.15941393      -0.02488436       0.11812595
C       20.76097623      21.53709308      22.11991643       1.42135235       0.13392981      -0.44587462
C       20.60781528      21.40518972      20.60014105       0.01298391       0.21877994      -0.06840474
C       22.38974440      22.73129409      19.57139780       0.06406330       0.60472220      -0.11095379
C       23.68731471      22.61389594      18.75979418       0.05816892       0.02998818       0.29018996
C       24.72472544      23.66121191      19.17649870      -0.05326870      -0.13323058       0.01295209
C       25.95565256      23.60511336      18.27686020      -0.24332181       0.07941604      -0.02217056
C       25.11236046      23.37680129      20.62828769      -0.24888485       0.14868344      -0.10720255
C       23.24462161      21.52283293      16.68084139       0.31949188      -0.96967991       0.01597331
C       22.79603219      21.48726581      15.21131791      -0.10913621      -0.58716652       0.12061623
C       21.28391045      21.22919531      15.18101041       0.14540301       0.11157920      -0.13676361
C       20.81072005      21.02108845      13.74453576      -0.43962359       0.02361053       0.23127910
C       20.97228792      18.71307569      13.03772793      -1.55434536      -0.05707001       0.22612524
C       21.78971614      17.66003538      12.49342441       0.28971076      -1.04491612      -0.30298590
C       22.26809949      16.65224782      12.03546425      -0.08144166       1.05063071       0.38596387
C       22.89668379      15.47137506      11.44289368      -0.12445455      -0.61374190      -0.31069650
C       25.16789994      15.52081372      12.39465989      -0.04079464      -0.01173951       0.06596209
C       24.68064675      16.85230335      10.49178253       0.02265278       0.07922269      -0.06146938
C       22.61784285      14.28234359      12.37612856       0.06699329       0.08601119      -0.04442882
C       22.19623390      15.18200838      10.10206075       0.03585590       0.01178333       0.04835873
C       22.96284341      20.17231712      13.05964028       0.48235795      -0.03424486       0.00672531
C       23.55075398      20.38450828      14.45756288      -0.14295586       0.14310909       0.09579337
C       22.80736273      23.95807134      16.87204925      -0.16440527       0.53413619      -0.21709316
C       19.99906261      20.08858502      20.12185391      -0.14683407       0.35674704      -0.23169380
C       19.85407020      20.07696218      18.58786840       0.31419170      -0.38515195      -0.04874315
C       19.03858166      18.85151276      18.15450940       0.32756810       0.23182389      -0.12492813
C       17.06418205      20.17037291      18.14563639       0.06930457       0.37000401      -0.05997896
C       17.89751140      21.40983561      18.46647132      -0.17678167       0.02759977      -0.00905785
C       19.66312960      21.84004811      24.27743624       0.15979783      -0.16203460       0.09142345
C       18.91430622      20.73854234      25.02234588      -0.06472903       0.27415615      -0.07729432
C       17.49578032      20.63639533      24.46689142       0.24672545      -0.27675394      -0.05606934
C       15.34323620      16.58891165      20.10722701       0.03446205      -0.33840490      -0.47299147
C       15.15264468      15.72087272      19.00066134       0.37681401       0.63153250       0.04928676
C       15.83998917      15.90597386      17.80633475      -0.01711454      -0.13002088      -0.15957364
C       16.69399417      16.98305296      17.70105393       0.08824271       0.07053008      -0.05000396
C       16.88594120      17.85368300      18.78178393       0.05056649       0.08883758       0.28639925
C       16.24068136      17.64508249      19.98321360       0.03194320       0.01758429      -0.15752076
F       23.07417633      22.68849174      14.55360727       0.00222521       0.15933260      -0.08413084
H        9.21768546      16.24512296      19.56953739      -0.02341843       0.05454306      -0.01006886
H        8.88023496      14.68826175      20.35688694      -0.02136346       0.05262647       0.03375583
H        9.61834629      16.00892362      21.27403385      -0.03605367       0.04244783       0.03895133
H       11.64153314      15.85623355      19.76342529      -0.18064234      -0.26322061       0.03837754
H       11.27512853      15.85513644      17.50780064      -0.03572463      -0.05625704      -0.04106525
H       10.93509332      14.28793539      16.72891425      -0.05189432       0.08256609      -0.06729195
H        9.61026531      15.20948595      17.47896304       0.07300353       0.00820056      -0.03384673
H       10.33614213      11.90305369      23.04961089       0.06894978      -0.05677089       0.10004300
H       12.72357518      11.82383775      23.80551880      -0.00918924      -0.02614646       0.03383396
H       14.36662983      13.30742288      22.64507852       0.00858750       0.01232787      -0.00373563
H       12.96262291      13.21267431      18.87496000       0.26771262       0.15820070      -0.19197116
H       13.93460384      13.84495816      17.53872397      -0.11887364      -0.02395398       0.15349302
H       15.00674907      12.21878288      19.90320532       0.00790115      -0.02487467       0.02324587
H       14.78767327      11.62399261      18.25479330       0.02779854      -0.10872656      -0.02950671
H       15.99560869      12.87177175      18.59205414       0.04206620      -0.04119908       0.00945088
H       14.00598664      15.83674647      23.18910727       0.10044054       0.09275522       0.06621604
H       15.43113793      16.84799417      22.91446874      -0.05659093      -0.11739910       0.11758970
H       14.41897902      18.23440079      24.75016319       0.01392536       0.00344174       0.07909018
H       12.85911359      19.02414553      24.50195751      -0.03752052       0.06362150       0.04878559
H       12.93137782      17.28337804      24.77348748      -0.02066238      -0.05600038       0.03804307
H       11.53311104      18.55793434      22.41436940      -0.08335222       0.04151986       0.01382740
H       12.23567353      17.60566262      21.10635097      -0.06263819      -0.03012443      -0.05502496
H       11.70519779      16.80863223      22.58749443      -0.06033726      -0.04750147      -0.00285872
H       13.61555896      20.02662457      22.36375982       0.10168148      -0.20080128      -0.02260756
H       14.26433329      19.00936533      21.06336793       0.00378797       0.04235626       0.22699153
H       18.02588189      19.43133604      22.75262326      -0.07312937       0.16743934       0.03122010
H       17.86198632      22.30677091      22.26045393       0.21297934      -0.25089649      -0.02891833
H       19.99619380      22.25097288      20.26288079       0.14593569      -0.28787873       0.06025156
H       22.47369041      20.73097446      19.89981063       0.00395023       0.25641973      -0.10832244
H       24.11814113      21.61819285      18.90257050      -0.10200282       0.30248059      -0.01546058
H       24.27116297      24.65510252      19.12605113       0.02626095      -0.13566163       0.00834955
H       25.72149201      23.91783584      17.26176140       0.05143544      -0.03384255      -0.03955807
H       26.72705888      24.26333910      18.66839549       0.07291737       0.01021275      -0.02832709
H       26.35041465      22.59086952      18.24194601       0.05945501      -0.04023471      -0.01071458
H       25.61880844      22.41659450      20.70240335       0.05184238      -0.04798482       0.01940574
H       25.77849749      24.15051230      20.99928762       0.05046681      -0.00152108       0.06606115
H       24.22854840      23.34644740      21.26354239       0.06713018       0.00660317       0.08148709
H       21.09104857      20.32682034      15.76385393      -0.01232035       0.09155523      -0.03721814
H       20.73900079      22.04999817      15.64799845       0.08079382      -0.05779475       0.03278194
H       20.99010604      21.92426538      13.15597381      -0.05562476      -0.08877613       0.01805653
H       19.74812688      20.77413586      13.72692378       0.22383563       0.08103030      -0.04051448
H       25.11459277      14.51137380      12.79283222       0.04415013       0.06226558       0.09237873
H       26.19972616      15.71053423      12.10563567      -0.01363933       0.00216699       0.04183311
H       24.89348705      16.23867977      13.18353203       0.02005765      -0.07117755      -0.03912516
H       24.57774609      17.75650746      11.11172210       0.00072696      -0.10261238      -0.08473302
H       25.71762465      16.77379057      10.16504307      -0.05251867       0.05942111      -0.00369009
H       24.05721547      16.96607285       9.61002399       0.05398903       0.05096116       0.02674482
H       23.10511734      13.39429173      11.98337037       0.03917612      -0.05795884      -0.00934944
H       22.96875475      14.47498547      13.38530298      -0.00991657      -0.01945760       0.01319389
H       21.54543834      14.10865796      12.42093147       0.03815980       0.01388094       0.00170680
H       22.67444167      14.32254444       9.63868558       0.00942515      -0.00170159      -0.01353631
H       21.14648469      14.96007491      10.27828787       0.00741580       0.01812042      -0.00355381
H       22.24851127      16.02831119       9.42317504      -0.01453542      -0.01211277       0.01161164
H       23.44692685      19.32346129      12.57368029      -0.07983458       0.29735222       0.08283934
H       23.12146337      21.07093958      12.45485907      -0.01299787      -0.19259010      -0.01520643
H       24.59996339      20.67025120      14.37754622      -0.01532996      -0.04239415       0.08489995
H       23.48319470      19.47104229      15.04849205       0.02224917       0.10797475      -0.09452634
H       21.95010823      23.83911161      16.21575472       0.12889793       0.04565884       0.06897497
H       22.48891856      24.54461696      17.73151296       0.04773501      -0.05359648      -0.09187057
H       23.59405623      24.49051650      16.33653100      -0.12122586      -0.01765402      -0.01246358
H       20.64673726      19.26011830      20.41084150      -0.04090449      -0.06570625       0.06156988
H       19.01620520      19.94738049      20.56485675       0.29501688      -0.05795477       0.02874485
H       20.84473224      20.05627972      18.11903735      -0.23594063      -0.11105120       0.10636732
H       19.49314869      17.94035432      18.54638387      -0.02216653       0.06485149      -0.04712652
H       19.02903564      18.79880580      17.04931785       0.01254225      -0.02761266       0.25861958
H       16.94705335      20.06625561      17.05037780      -0.01185848       0.04735854       0.19419792
H       16.07493342      20.28198559      18.59674187       0.11921636       0.00127380      -0.10962177
H       17.82708944      21.61687595      19.54031973      -0.01129689       0.00835498      -0.12324071
H       17.53286597      22.27383019      17.90828717      -0.00761555      -0.12016353       0.13802325
H       20.71082449      21.89184694      24.57220307      -0.22638482       0.03739914      -0.05139494
H       19.18803398      22.81136172      24.46098013       0.05759105      -0.07480756       0.01077850
H       18.89032983      20.96919497      26.08672201       0.02197745      -0.04951188      -0.00398582
H       19.43609407      19.79029059      24.88422266       0.00339575       0.05287539       0.05530739
H       16.94855513      21.56164902      24.66810044      -0.01043355      -0.07275851      -0.04575861
H       16.95746982      19.80783186      24.92585123      -0.04676035       0.07923141      -0.01669153
H       15.70695219      15.23537226      16.97107949      -0.01585927      -0.03362148      -0.02387335
H       17.22143765      17.15758427      16.77431208       0.00647077       0.01566703      -0.00667916
H       16.45580296      18.31092291      20.80051330       0.02381818      -0.00058056      -0.03787088
