151
Properties=species:S:1:pos:R:3:MACE_forces:R:3 energy:=T -221.331931816291=T gnorm:=T 0.009009449587=T xtb:=T 6.7.1=T (edcfbbe)=T MACE_energy=-90873.39835572887 pbc="F F F"
C        9.89507779      15.52470237      19.87571492       0.24356325      -0.22403022      -0.23973590
N       10.92287048      13.27854312      21.23710189      -0.29547608       0.08496611      -0.13911932
O       11.15229895      14.04709971      18.36492383      -0.07856220      -0.01742309       0.19946849
C       11.24304990      14.91596699      19.49257927      -0.02585830       0.20767740       0.00870982
N       14.54069278      14.81162211      19.06715929      -0.32236704       0.04226230       0.11143834
O       15.74276202      19.30365256      22.52164762      -0.15545588      -0.55874868       0.33310610
C       10.94867328      14.69845914      17.13116622       0.02115012       0.02892092       0.09449928
N       18.60839592      21.43895348      22.30126201      -0.27941319       0.31269637      -0.00883182
O       19.17193862      18.54568827      14.21140199       0.75979238       0.06600075      -0.28952263
C       11.79128502      14.07485097      20.63113727       0.35309091       0.15945170      -0.14342923
N       19.83517040      21.54883088      22.96709736      -0.92507829       0.07512507       0.73447115
O       23.34681458      20.52325108      17.20911466      -0.27053750       0.37000928      -0.30059159
C       11.32658962      12.52346732      22.24258451       0.07287610      -0.13598557       0.16470433
N       22.17393825      21.61301379      20.16291548      -0.17416472      -0.52812849       0.24553410
O       21.79883351      23.78151112      19.67220449       0.13212338      -0.21465557      -0.04136811
C       12.62734060      12.53006355      22.72177778       0.04931325       0.04291508      -0.05325449
N       23.21975478      22.76907169      17.28974973       0.24528241       0.18257582       0.17307741
O       19.76504053      21.19409903      18.20579664      -0.07540195      -0.00306929       0.02037566
C       13.54304876      13.35188413      22.09153731      -0.16374729      -0.03768130      -0.09701278
N       20.86302267      19.88501666      13.49853408       0.06774220       0.28067387      -0.12710636
O       22.08461764      21.52783758      22.86596654      -0.62431036      -0.13552423      -0.16423988
C       13.13836495      14.13867379      21.01323715      -0.17240647      -0.22761850       0.17748541
N       23.52084783      15.52902413      12.09132951       0.02173903      -0.07459938      -0.06629567
O       15.98896682      21.29043772      21.51963754       0.15897043      -0.25323947       0.28072836
C       14.12549428      15.00842146      20.36581107       0.05045391       0.32930449       0.33975426
N       18.13618288      18.98346343      18.72229650      -0.24360477      -0.20852640      -0.17616091
C       14.24792724      13.66071766      18.25042265      -0.00754553      -0.51919056      -0.17452491
C       15.33601004      12.59740837      18.37533998      -0.08756588       0.18527629      -0.06214506
C       14.78299205      16.08171760      20.92452158      -0.18216741      -0.30295052       0.06713328
C       14.64776974      16.60299394      22.32044254      -0.09465494       0.00263232      -0.05370631
C       13.77808529      17.86878485      22.50043839       0.17559967       0.19227860       0.08878546
C       13.55891918      18.09624944      23.99914459       0.11530059      -0.00163123      -0.24473357
C       12.42881177      17.69142694      21.80457564       0.27821414       0.12665471       0.02743403
C       14.45987165      19.10704257      21.90468470      -0.51469811       0.03448301      -0.29351456
C       16.40680633      20.40734334      22.23242698       0.34514072       0.77043034      -0.56251287
C       17.76109055      20.42781650      22.92521002      -0.20635808      -0.01642736       0.13967660
C       20.99754976      21.47018892      22.30046736       1.41029111       0.05789988      -0.47815492
C       20.88818722      21.37288615      20.77824684      -0.04821997       0.20871213      -0.07552842
C       22.47958325      22.76907289      19.56682245       0.10047294       0.42279524      -0.07387983
C       23.72258252      22.71898208      18.66646393       0.04442510       0.05623472       0.26667438
C       24.72261162      23.82067594      19.03992396      -0.04121510      -0.10330202      -0.02737572
C       25.88318050      23.88629445      18.05064690      -0.28658705       0.04823618       0.03674328
C       25.23747618      23.52311922      20.44870501      -0.26855885       0.16059833      -0.07634604
C       23.05477758      21.59667639      16.67007979       0.33880046      -0.99098829      -0.02027546
C       22.44762574      21.52910215      15.25568662      -0.19496672      -0.50531193       0.11863041
C       20.92859108      21.38711744      15.40436903       0.12693617      -0.00059680      -0.11605946
C       20.26349253      21.07043037      14.06837485      -0.31790861       0.08788771       0.32293745
C       20.27170419      18.68410621      13.66861150      -1.28377894       0.22733852       0.48127528
C       20.97429103      17.56061288      13.10964662       0.12542692      -1.18999165      -0.37511554
C       21.38106673      16.52545686      12.64272538      -0.06637183       1.10200308       0.42705070
C       22.05767144      15.35280434      12.09046622      -0.03951392      -0.61346915      -0.21742974
C       24.06724889      15.81627053      13.40454957       0.01790512       0.05333315       0.12066580
C       24.01100907      16.48929477      11.11984883      -0.03363417       0.02802800      -0.03481491
C       21.69531991      14.11880363      12.93733843       0.00540503       0.09339359      -0.00592000
C       21.53451614      15.12646436      10.66369790       0.05097590       0.06070252       0.11631595
C       22.26554679      20.05760602      13.20049524       0.47272105      -0.06279688      -0.01994670
C       23.04326041      20.34238265      14.48836665      -0.07955103       0.10186518       0.12099183
C       22.72380478      24.04007545      16.80280347      -0.17875239       0.55884407      -0.26092557
C       20.34828423      20.02818323      20.28863570      -0.13406823       0.37949611      -0.27576886
C       20.30239086      19.99693209      18.75008834       0.35624561      -0.44921002       0.00454939
C       19.49481233      18.78618658      18.26963436       0.28920115       0.23655825      -0.13030082
C       17.56433404      20.15018141      18.07345356       0.15146487       0.36505863      -0.06113096
C       18.38373241      21.37037644      18.48462962      -0.23060346       0.01355422      -0.01230585
C       19.78339932      21.81071415      24.39823978       0.17913856      -0.18247313       0.05993620
C       18.94500903      20.74216086      25.09435048      -0.05483633       0.25682371      -0.12247427
C       17.56854943      20.66815199      24.43530370       0.29625976      -0.31432151      -0.06758038
C       15.66085839      16.57259361      19.91589492       0.05698063      -0.32144680      -0.46294533
C       15.48768714      15.75132915      18.77277587       0.37001094       0.61802591       0.09760104
C       16.21374775      15.97054615      17.60642746      -0.01563541      -0.12055695      -0.14951255
C       17.09723784      17.02869677      17.57497956       0.12662428       0.08534061      -0.11149458
C       17.27735209      17.84552970      18.69923870       0.01156234       0.06449457       0.32622950
C       16.58660854      17.60832252      19.86787060       0.04680983      -0.01570149      -0.20425503
F       22.72990335      22.67920225      14.51245316       0.02840823       0.17267175      -0.08091219
H        9.52512740      16.16785248      19.08304945      -0.02417685       0.07843099      -0.03724619
H        9.18540838      14.72358066      20.05661849      -0.03963177       0.04519016       0.02665852
H       10.00800067      16.11487897      20.77945488      -0.03127612       0.06081757       0.07041474
H       11.96246890      15.71849986      19.25981297      -0.17749034      -0.23591205       0.06258248
H       11.06246922      13.92932781      16.36827691      -0.02342577       0.16620210      -0.03301861
H        9.94617031      15.13195564      17.05830967       0.09929098      -0.02174363      -0.02338754
H       11.69557981      15.48846883      16.97678366      -0.08323327      -0.09148756      -0.02615888
H       10.56900999      11.89269763      22.68387696      -0.00154758      -0.07735851       0.11315388
H       12.91458970      11.90996855      23.55543922      -0.00667263      -0.04990864       0.03950553
H       14.57387534      13.38617947      22.41169698       0.02685995       0.00774869       0.01231508
H       13.28430562      13.24818855      18.55556611       0.25604180       0.18543742      -0.18630277
H       14.16025642      13.98910017      17.20946029      -0.08410141      -0.05259477       0.20393371
H       15.40603873      12.24781620      19.40291574       0.00534880      -0.01818997       0.01786748
H       15.10095738      11.75388625      17.73413832       0.02392002      -0.11752468      -0.04432221
H       16.30027956      13.00592712      18.08040976       0.03495506      -0.05083637       0.01487872
H       14.20733259      15.81868146      22.93933570       0.09653015       0.10724803       0.06009502
H       15.64506342      16.82436026      22.70598891      -0.08710117      -0.11705179       0.11314113
H       13.01709947      19.02306789      24.16583726      -0.06433811       0.09670960       0.05877497
H       12.98061166      17.28221999      24.42356397      -0.03726516      -0.10967594       0.06336304
H       14.51227620      18.15542444      24.51542726       0.04279451       0.00824557       0.10336960
H       11.78394344      18.54507192      21.99650776      -0.09257305       0.03815225       0.01175715
H       12.56191871      17.59384786      20.73060312      -0.05698036      -0.02651204      -0.05791603
H       11.94002789      16.79348182      22.17349221      -0.06462992      -0.03901538      -0.00723586
H       13.85319521      20.00278204      22.07155982       0.08379359      -0.18298726      -0.01213161
H       14.60783737      18.99301359      20.82693113      -0.00559006       0.03978367       0.21488356
H       18.23913222      19.45220981      22.78129224      -0.09803470       0.17877930       0.01245817
H       18.11650370      22.33509784      22.29834373       0.20578010      -0.24973199      -0.05218794
H       20.23516954      22.18752408      20.44660698       0.15823556      -0.28652905       0.03873689
H       22.79593915      20.82660787      20.07183490       0.00303595       0.21972615      -0.12547982
H       24.21578138      21.74765592      18.76915250      -0.10666534       0.29240448      -0.00002788
H       24.20298903      24.78339917      19.06642119       0.03803308      -0.16424392      -0.01982595
H       25.55211375      24.21982620      17.07065976       0.04983180      -0.03243420      -0.06030410
H       26.63217901      24.58463738      18.41367776       0.08776488       0.02120717      -0.02859053
H       26.34345054      22.90578249      17.94557739       0.07428864      -0.05187844      -0.02521394
H       25.80477769      22.59592743      20.46059395       0.06906288      -0.08159255       0.00845264
H       25.88227254      24.32864408      20.78761330       0.06199391       0.00280474       0.07446579
H       24.40910234      23.42716671      21.14987771       0.08595444       0.00337446       0.06079827
H       20.73992410      20.57174314      16.10323244       0.00301089       0.14295794      -0.15591235
H       20.50185095      22.29236370      15.83494644       0.07062158      -0.10184328       0.04357670
H       20.39859440      21.89793046      13.36835885      -0.04871600      -0.08033080       0.00954631
H       19.19938797      20.88172599      14.21556741       0.19674432       0.06942395      -0.06438489
H       23.74942737      15.06226411      14.11857367       0.04413425       0.05938149       0.03752180
H       25.15395936      15.78073381      13.33758496      -0.04418112       0.00161409       0.03472483
H       23.77355046      16.80675867      13.78734783       0.02854978      -0.12784686      -0.03683536
H       23.54452966      17.48138753      11.22004090       0.03869684      -0.08534527      -0.04512704
H       25.08402430      16.60192404      11.26383356      -0.03558282       0.01169514      -0.02269286
H       23.84714592      16.11757953      10.11200749       0.01998718       0.12320384      -0.02340094
H       22.40497494      13.32720256      12.72164296       0.04185990      -0.07739631      -0.03867239
H       21.71421747      14.34075353      13.99951196       0.02648299      -0.01878873       0.02487220
H       20.69564555      13.77756358      12.68553097      -0.05389730       0.02812946       0.03206275
H       22.05883322      14.28646598      10.21941151       0.05450253      -0.06675384      -0.05361388
H       20.47138735      14.90297029      10.70424491       0.02727911       0.00202276       0.00011223
H       21.66473648      16.00765692      10.04414089       0.00282305       0.00986914      -0.02532786
H       22.64960444      19.15370341      12.72568800      -0.05124999       0.30507345       0.04455989
H       22.36854665      20.89959563      12.51004572      -0.02552996      -0.18238947      -0.00566928
H       24.08392158      20.56663310      14.25179273      -0.00643580      -0.03752461       0.08655398
H       23.01874666      19.47389691      15.14830859       0.01259173       0.12681082      -0.11680726
H       23.40730794      24.47369934      16.07173295      -0.13252899      -0.02180834       0.07082991
H       21.74142468      23.92698718      16.34707396       0.18599290       0.09187668       0.06437013
H       22.61608655      24.71263170      17.65053268      -0.01873656      -0.11862466      -0.10080518
H       20.99119113      19.22178268      20.63755148      -0.00026083      -0.09274249       0.05210669
H       19.34109505      19.87441229      20.66484476       0.21331259      -0.05940734       0.11043557
H       21.31957521      19.94674331      18.34245559      -0.30966611      -0.04250712       0.10426208
H       19.89311831      17.87148862      18.71051035      -0.00635736       0.06182357      -0.03741993
H       19.56659550      18.70940854      17.16907118       0.01461289      -0.01783420       0.23244293
H       17.57317533      20.04231724      16.97403787      -0.05175853       0.06503987       0.14628898
H       16.53447073      20.27700017      18.41154307       0.09898659       0.00527825      -0.06538063
H       18.22602368      21.56425639      19.55171103      -0.00622295       0.00471702      -0.13018882
H       18.08108913      22.25061750      17.91284043       0.00458699      -0.13222187       0.12789929
H       20.81090300      21.82079606      24.76053154      -0.20377455       0.04325586      -0.06142662
H       19.33796415      22.79988125      24.55187276       0.03464160      -0.04343390       0.03086156
H       18.84888370      20.99150641      26.14903150       0.01516976      -0.05841111       0.04638570
H       19.44604861      19.77700156      25.00774202       0.00708774       0.04906223       0.06070592
H       17.02942980      21.60619658      24.58544794      -0.03887469      -0.03659629      -0.03419040
H       16.97925298      19.85566836      24.85667088      -0.05543715       0.06679029       0.00639827
H       16.08993638      15.34353774      16.73631710      -0.01576524      -0.03200854      -0.01617080
H       17.65522637      17.23462296      16.67207911       0.00489794       0.01746018      -0.01725669
H       16.79070489      18.23732786      20.71481300       0.01677777       0.02864141       0.03478477
