151
Properties=species:S:1:pos:R:3:MACE_forces:R:3 energy:=T -221.329940807470=T gnorm:=T 0.005790568082=T xtb:=T 6.7.1=T (edcfbbe)=T MACE_energy=-90873.32382786405 pbc="F F F"
C        9.68704399      15.51134782      20.51590858       0.21727552      -0.12241512      -0.32135329
N       10.84562831      13.15712886      21.50050768      -0.29631946       0.04344635      -0.09209957
O       10.72174564      14.20549877      18.70906130      -0.06187833      -0.03364555       0.19726320
C       10.96954461      14.95115008      19.89954250      -0.03632604       0.22350357       0.00677335
N       14.26027788      14.78283011      19.07203055      -0.25146948       0.09420584      -0.00562744
O       15.73105839      19.16654748      22.45194639      -0.09802997      -0.64725521       0.34879553
C       10.35541381      14.98968165      17.59577609       0.06851640      -0.05774127       0.12611161
N       18.46577450      21.42359605      22.08333389      -0.30442082       0.25092776      -0.11487153
O       19.64880434      19.30495322      12.98133265       0.83499794      -0.03080277       0.04680533
C       11.64713089      14.00568516      20.87265829       0.34284181       0.15823661      -0.19461157
N       19.70227366      21.60919576      22.71128755      -0.68046575       0.12937908       0.66074526
O       23.41839633      20.70696252      17.46597828      -0.09160849       0.21864463      -0.30569671
C       11.35231331      12.31488670      22.38205393       0.07712036      -0.14198527       0.16455907
N       22.02787021      21.59982322      19.91910951      -0.35250919      -0.79892433       0.13570591
O       21.79068836      23.84155924      19.94196917       0.20799379      -0.25743390      -0.02029048
C       12.69817624      12.28372079      22.71270830      -0.00140197       0.03134318      -0.02659458
N       23.38892519      22.95647195      17.50087536       0.21515486       0.16933832       0.21672229
O       19.62645074      21.01521475      17.90901974      -0.02312836      -0.05042910       0.03776404
C       13.54404158      13.15815927      22.05643458      -0.14863310      -0.03389832      -0.07495884
N       21.63746732      20.37734194      13.19087166       0.24310211       0.39216108       0.01494644
O       21.94680887      21.60972055      22.57747824      -0.57440865      -0.14720827      -0.18700740
C       13.02977388      14.03448960      21.10013536      -0.15805478      -0.27782081       0.23295254
N       22.71594236      14.93450709      12.69900237      -0.01286837      -0.02976821       0.02516137
O       15.76116716      21.21737809      21.54395168       0.30161921      -0.38128836       0.27944234
C       13.96133100      14.93460803      20.40871753       0.10595293       0.31750587       0.35555115
N       17.94995068      18.87194108      18.57622395      -0.14488226      -0.15895462      -0.18762065
C       13.82957525      13.68793912      18.23831865      -0.00634027      -0.52119905      -0.11414221
C       14.74391467      12.47378227      18.39416319      -0.09478882       0.20037820      -0.07835469
C       14.70405307      15.95834867      20.95223870      -0.18894523      -0.31032908       0.07413946
C       14.70596951      16.42834580      22.37172768      -0.14712801       0.07275540      -0.09132176
C       13.83587388      17.67010016      22.67563701       0.20680503       0.19147559       0.06918069
C       13.82358421      17.89563730      24.18968455       0.05948925       0.00111185      -0.17151743
C       12.40944899      17.45824237      22.17324450       0.26306193       0.12606126      -0.01684079
C       14.39714831      18.92097315      21.98783680      -0.52675887       0.01143313      -0.23945862
C       16.29399275      20.32350105      22.16278664       0.23633261       0.96499190      -0.55589106
C       17.68373423      20.40239747      22.77068060      -0.23191184       0.02098559       0.16798327
C       20.85620045      21.50654234      22.02882513       1.02440576       0.11089599      -0.31040304
C       20.73490344      21.33918269      20.50911414       0.08412502       0.27779985      -0.05831209
C       22.45058572      22.84001769      19.67891849       0.05205857       0.56715020       0.01196381
C       23.77763486      22.90913838      18.91686567       0.01802471       0.01989740       0.26161160
C       24.65342144      24.08695886      19.35681647      -0.02863540      -0.18077014       0.01499912
C       25.95039555      24.13821920      18.54849515      -0.30370325       0.04408641       0.03860247
C       24.96116320      23.94074271      20.84693861      -0.30584445       0.08442576      -0.09487411
C       23.25308115      21.78021341      16.88004840       0.18406641      -0.72437196      -0.09586067
C       22.90183594      21.73864794      15.38425320      -0.21520872      -0.48551491       0.16126440
C       21.38258414      21.75356233      15.18992864       0.15900132       0.05924211      -0.19120855
C       21.03219830      21.58107460      13.71115390      -0.40318582       0.16012200       0.22668538
C       20.88051357      19.30461212      12.90506580      -1.40195115       0.17161473      -0.09593171
C       21.58179574      18.13744030      12.43364744       0.08109364      -1.06816218      -0.26426612
C       21.96497765      17.06536205      12.04164608       0.01463260       0.88897181       0.25226347
C       22.48881836      15.79884321      11.53254372      -0.07498430      -0.12529579      -0.22403055
C       23.73000931      15.43726740      13.60456242       0.01271525      -0.03213377       0.07054134
C       22.93618054      13.53292865      12.40929656      -0.03833510       0.06202833      -0.04151677
C       21.39336720      15.21952330      10.62430515       0.05770565      -0.02134850       0.06192903
C       23.75159158      16.08328241      10.69245239      -0.09599337      -0.07340729       0.13649268
C       23.07722636      20.36388052      13.28163848       0.36971086      -0.06797306       0.17749630
C       23.50871294      20.48519648      14.74468790      -0.03727766       0.16399293      -0.02270108
C       22.92499779      24.24206565      17.01943019      -0.18476052       0.36036498      -0.14929782
C       20.21740693      19.97158924      20.07014196      -0.06175168       0.32809714      -0.35831339
C       20.14894485      19.85134943      18.53456374       0.26567247      -0.43316221       0.03723862
C       19.31096123      18.62174731      18.14928065       0.29899696       0.22709784      -0.05574077
C       17.40551581      20.00694052      17.85298888       0.12942454       0.40880621      -0.07989814
C       18.25223952      21.23245231      18.18836550      -0.28840532      -0.00217738      -0.08292471
C       19.67916324      21.93096911      24.13014599       0.23957464      -0.15886947       0.10063413
C       18.92112851      20.84776138      24.89233175      -0.12597103       0.28912819      -0.09516704
C       17.53262928      20.68270472      24.27914700       0.27130405      -0.28492549      -0.04505094
C       15.51464801      16.46436996      19.89407592       0.02238624      -0.23947615      -0.39594641
C       15.21903896      15.69689683      18.73929341       0.32326475       0.54183115       0.16698584
C       15.86303885      15.94056951      17.52978864      -0.03922367      -0.12855710      -0.21118390
C       16.77364398      16.97297923      17.47246135       0.11752273       0.07588957      -0.07080805
C       17.06831244      17.74609545      18.60538854       0.06716406       0.12791173       0.32340440
C       16.46523916      17.47918991      19.81529573       0.00145027      -0.06735972      -0.19516607
F       23.46598887      22.84298384      14.72991592       0.04811408       0.14300432      -0.14822643
H        9.22650084      16.23833002      19.85389222      -0.01899100       0.07482313      -0.00430580
H        8.99931015      14.69136154      20.69652004      -0.02712192       0.03027847       0.03445003
H        9.91881904      15.99563497      21.45901620      -0.04130784       0.06217414       0.05608994
H       11.66150111      15.77392963      19.65413199      -0.14905786      -0.23400351       0.08750373
H       10.34809115      14.31353524      16.74404336      -0.02731249       0.11687551      -0.03571366
H        9.36252861      15.42805430      17.71672185       0.02453169       0.01420537      -0.04595448
H       11.08577023      15.78860567      17.42712427      -0.04267226      -0.01177335      -0.04758455
H       10.64072411      11.64601521      22.84607805       0.05057438      -0.07505237       0.09042520
H       13.06855389      11.59435847      23.45385202       0.01572939      -0.03699632       0.02991837
H       14.60425838      13.16540751      22.26341957       0.02640095       0.01730517      -0.00455504
H       12.80528675      13.41913750      18.50522294       0.25944863       0.15913530      -0.16057613
H       13.83588987      14.02966452      17.20090312      -0.12405078      -0.00982677       0.15607473
H       15.76534482      12.73000353      18.12322041       0.05460556      -0.03767131       0.00074807
H       14.73319461      12.12442672      19.42401201      -0.00054786      -0.02057256       0.01330891
H       14.39866494      11.66975911      17.75138965       0.02293380      -0.11504565      -0.03503933
H       14.34706245      15.61733947      23.00773926       0.08948857       0.07914814       0.05672004
H       15.73317883      16.66087002      22.65672556      -0.04008114      -0.11900570       0.12388559
H       14.83578897      18.04896666      24.55778302      -0.01228786      -0.01703157       0.06795587
H       13.22780868      18.77158860      24.43977606      -0.02254921       0.03858945       0.04863837
H       13.39614180      17.03364415      24.69688075      -0.02132194      -0.02952180       0.04160890
H       12.00308993      16.54109567      22.59126084      -0.05688392      -0.05361307       0.01285909
H       11.77223843      18.28890367      22.46481572      -0.08656600       0.04788276       0.04146884
H       12.39795735      17.37942624      21.09005795      -0.05927576      -0.03750670      -0.05707737
H       13.78246239      19.79881301      22.21219102       0.09400587      -0.19124510      -0.03635624
H       14.42546010      18.79085402      20.90189062      -0.00232868       0.05923902       0.18945911
H       18.18870984      19.44074725      22.63283989      -0.09006542       0.13730923       0.01700904
H       17.93698770      22.29718929      22.06222447       0.17946486      -0.20286224      -0.01239375
H       20.06082375      22.12948768      20.15807361       0.16057961      -0.32424298       0.06834684
H       22.61137245      20.81353628      19.67368608      -0.04663175       0.34115039      -0.07442120
H       24.33132234      21.97643524      19.05778805      -0.09621681       0.23713544      -0.02027029
H       24.08919894      25.01183183      19.22054962       0.03234235      -0.13562705      -0.01375462
H       25.76896943      23.94929286      17.49456498       0.05131854       0.04162136      -0.11950428
H       26.41509268      25.11446356      18.65029906       0.10926788       0.03563099       0.00091178
H       26.64741924      23.38745814      18.91131921       0.06591605      -0.08018524      -0.01715354
H       24.04144411      23.87216787      21.42473307       0.06902526       0.03962440       0.05896409
H       25.54587122      23.04319687      21.03297767       0.07934212      -0.06094526       0.00521361
H       25.52380338      24.80212349      21.19480435       0.07903254       0.01969362       0.07482269
H       20.95834457      20.94080974      15.78021666       0.01149934       0.08067423      -0.03963286
H       20.95106303      22.68239042      15.55977779       0.03284222      -0.08217551       0.06570502
H       21.40633131      22.43663652      13.14019463      -0.08190532      -0.11011293       0.03803293
H       19.95157308      21.49962229      13.58491890       0.25280020       0.05884333      -0.01469359
H       23.59084911      16.50635093      13.75322274       0.06005356      -0.05260653       0.04596986
H       23.60962662      14.93859268      14.56637059       0.07645879       0.05061702      -0.02106844
H       24.75498066      15.25438314      13.24882270      -0.05366917       0.05602340       0.02263906
H       23.02915170      13.01026003      13.36031148       0.01368828      -0.04397266      -0.07614154
H       22.08237682      13.11947581      11.88075126       0.05610948      -0.08115774      -0.01454309
H       23.85042588      13.34431897      11.82633682      -0.03970766      -0.02867097       0.02454293
H       20.54081433      14.90962316      11.22224709      -0.01134488      -0.03004765      -0.00311911
H       21.06473742      15.98690201       9.92763443       0.02430425      -0.04955370      -0.01872250
H       21.76977776      14.37510457      10.05493641       0.00030528      -0.06232330      -0.03172100
H       24.49341531      16.62485077      11.27336333       0.02031486      -0.00537778      -0.02131953
H       24.18346791      15.14682120      10.34794796       0.03303371      -0.03609698      -0.03162129
H       23.48572711      16.68340633       9.82660842       0.03635530       0.02631195      -0.02789912
H       23.45909226      19.43856941      12.85001298      -0.04103375       0.21060015       0.02586846
H       23.46932427      21.21522476      12.71611762      -0.01591258      -0.17535471      -0.00228506
H       24.59540272      20.54460178      14.80861520      -0.05314313      -0.01586376       0.06975401
H       23.17646977      19.62027098      15.31873773       0.05595393       0.08582806      -0.10238781
H       23.76892248      24.88393905      16.76810730      -0.09448759       0.00438470      -0.03048648
H       22.29690934      24.13628255      16.14376399       0.13708174       0.03493004       0.09097646
H       22.33486101      24.70639860      17.81055342       0.09196503      -0.01969719      -0.10579808
H       20.87405422      19.18768596      20.44772991      -0.01556473      -0.05425934       0.03816007
H       19.21581844      19.82494009      20.46823187       0.22003611      -0.02245941       0.05247143
H       21.15832889      19.76066055      18.11741865      -0.22106402      -0.04405418       0.13377636
H       19.68934095      17.73698665      18.66260454       0.00963906       0.05117784      -0.06877456
H       19.39056866      18.46197542      17.05825499       0.00187150      -0.00507503       0.19517746
H       17.41021754      19.83954119      16.75993609      -0.02844610       0.02553484       0.17245368
H       16.37831619      20.17736974      18.18038504       0.09304855       0.00734906      -0.06380716
H       18.10736779      21.48495698      19.24518123      -0.00370321      -0.01221083      -0.11735515
H       17.96365535      22.08375237      17.56985668      -0.04273137      -0.08698585       0.13789892
H       20.71493904      22.01074149      24.45927017      -0.21784100       0.03011831      -0.05336745
H       19.18450993      22.90056240      24.25626976       0.05313101      -0.06183059       0.01827562
H       18.84119110      21.12858978      25.94129840       0.03469519      -0.06047710       0.02353854
H       19.46956482      19.90761518      24.82363816       0.02923521       0.01955986       0.05205350
H       16.95269236      21.59879630      24.41549460      -0.02423598      -0.05075075      -0.02696860
H       16.99682049      19.85890096      24.74802489      -0.05116277       0.06151504       0.00157116
H       15.65703381      15.34844593      16.65114268      -0.02256673      -0.02470060      -0.02932430
H       17.27274504      17.19540372      16.53966538      -0.01112253      -0.00800959      -0.01342233
H       16.74131945      18.06376067      20.67557256       0.00131355       0.02562401      -0.00375745
