151
Properties=species:S:1:pos:R:3:MACE_forces:R:3 energy:=T -221.330534766548=T gnorm:=T 0.008990931262=T xtb:=T 6.7.1=T (edcfbbe)=T MACE_energy=-90873.25735388743 pbc="F F F"
C        9.92184104      15.52239425      20.28276729       0.20034211      -0.22856040      -0.26639108
N       11.03644406      13.22783152      21.52944662      -0.30409799       0.13036197      -0.09967789
O       10.85408716      13.87269746      18.70322064      -0.07450830       0.03246161       0.16581529
C       11.15937743      14.81454284      19.73190279      -0.00913716       0.19934651      -0.04814916
N       14.35202700      14.92552237      18.97341058      -0.28455781       0.02427213       0.17953833
O       15.92855263      19.06105919      22.63142250      -0.07054865      -0.72503407       0.19417962
C       10.29960867      14.42306092      17.52729268       0.10797360      -0.04193446       0.16634962
N       18.48415973      21.47137274      22.51494353      -0.36901795       0.37785313       0.00011572
O       19.65934889      18.14684547      13.92986125       0.60365331       0.25669434      -0.20061650
C       11.84233317      14.00009188      20.81383201       0.33148349       0.10451534      -0.15870652
N       19.74542036      21.69047505      23.07610524      -0.79361376      -0.05268170       0.77529948
O       23.27673386      20.88219608      17.02555757      -0.43376008       0.34462002      -0.26607444
C       11.54023861      12.45985526      22.47674217       0.08967953      -0.17104274       0.15671007
N       21.84080763      21.90775366      20.09357054      -0.05817615      -0.57111548       0.22909006
O       21.30857388      24.04746009      19.64312212       0.17095178      -0.23020652      -0.00965983
C       12.89549802      12.40477423      22.76597841       0.00382435       0.05715876      -0.06279246
N       22.67257525      23.04809634      17.17574753       0.11618909       0.20854036       0.19377460
O       19.71895370      21.22285149      18.14054725      -0.09193979       0.01357580       0.01759318
C       13.74322151      13.20906730      22.02875448      -0.12168665      -0.05163006      -0.07857643
N       20.98953194      19.86534310      13.27247319       0.01431808       0.36598420      -0.21725921
O       21.94971968      22.00022139      22.76023700      -0.49238569      -0.27953437      -0.03601649
C       13.22731934      14.03694663      21.03000369      -0.18954888      -0.26427077       0.17882648
N       23.10958402      15.03812690      11.20415653      -0.03553982       0.06523470      -0.04228784
O       15.73553071      21.26645751      22.27630360       0.26148814      -0.34881635       0.11163934
C       14.14414405      14.94584086      20.33617690       0.11388604       0.29787277       0.33048407
N       17.93000992      19.12774615      18.62478683      -0.20676846      -0.17731660      -0.15630491
C       13.95973023      13.86523553      18.07872254       0.01467838      -0.50535902      -0.23346386
C       15.08056195      12.84033004      17.91130549      -0.14743725       0.15659901      -0.02298364
C       14.90441064      15.93457125      20.92135400      -0.14367521      -0.29904276       0.02627961
C       14.97113814      16.30438356      22.36785093      -0.15603036       0.03394307      -0.02442679
C       14.08010022      17.49430380      22.79385329       0.20575836       0.20145487       0.09909301
C       14.11760048      17.60285800      24.32102267       0.06807183      -0.00737258      -0.23061010
C       12.64213065      17.28399352      22.32310702       0.25996868       0.11881472       0.00400265
C       14.59041551      18.80495294      22.18161531      -0.63727932      -0.01220528      -0.11252664
C       16.37327721      20.29802091      22.62478750       0.16740915       1.04414647      -0.23738303
C       17.78811288      20.37281969      23.17501904      -0.19480757      -0.01527684       0.11907423
C       20.83811448      21.76569334      22.30319029       1.20279352       0.26102204      -0.65787913
C       20.61354637      21.61001854      20.79444313      -0.00882006       0.23308509      -0.10837698
C       22.04762156      23.08128916      19.49155123       0.00117655       0.43842684      -0.06628749
C       23.23685125      23.10338063      18.52536075       0.09971402       0.10621738       0.21453422
C       24.14958475      24.31035146      18.78041038      -0.02312444      -0.16764846       0.02515807
C       25.24208469      24.40769502      17.71939446      -0.25507595       0.01960899       0.01880133
C       24.76273809      24.14524462      20.17157668      -0.25363655       0.12281040      -0.11336241
C       22.75034030      21.88339307      16.52631505       0.56249928      -0.94656725      -0.04446873
C       22.16193463      21.73306081      15.11092380      -0.03902763      -0.49897924       0.08152941
C       20.71400769      21.24752289      15.24303114       0.07708764       0.07783085      -0.09357733
C       20.13364751      20.85628276      13.88508737      -0.33809674       0.04107037       0.34576040
C       20.71699968      18.55718250      13.44740729      -1.14145328      -0.29782985       0.30646838
C       21.73449949      17.64137586      13.00106442       0.65037858      -0.96424734      -0.14371149
C       22.52092167      16.77851955      12.70720489      -0.54678713       0.80353501       0.12654921
C       23.54136764      15.77904301      12.39641660       0.23925786      -0.07329536       0.10238388
C       21.80849086      14.41463497      11.33971978      -0.14895943      -0.01117547       0.02294372
C       24.07954342      14.09393210      10.68827307       0.03141161       0.01975099       0.00106175
C       24.84420801      16.54281653      12.10820501      -0.05695095      -0.08112669       0.04598501
C       23.71772750      14.91293438      13.66331183      -0.01993938      -0.06983304      -0.14808712
C       22.31283123      20.37438438      12.98848256       0.40938973       0.13057970       0.02653188
C       23.01280105      20.75003478      14.29648140      -0.15184710       0.07668124       0.11637493
C       21.94161489      24.21532850      16.72520951      -0.26055296       0.48445048      -0.18462699
C       20.10196354      20.23057661      20.36738376      -0.14834596       0.28805900      -0.32320017
C       20.15215328      20.06254593      18.83475024       0.32335363      -0.45615077       0.14124416
C       19.33240566      18.83132898      18.41857928       0.40932950       0.21965776      -0.18710102
C       17.53350554      20.23077042      17.77109852       0.20233767       0.35926630       0.04728714
C       18.32284996      21.45255460      18.23562112      -0.17482120      -0.04069943      -0.14796378
C       19.79968568      21.91684051      24.51223182       0.17093542      -0.13997231       0.09691853
C       19.13352576      20.75270906      25.24194503      -0.08409981       0.26573547      -0.06255305
C       17.71771467      20.55772720      24.70307182       0.27428965      -0.21641639      -0.08447588
C       15.63105804      16.55544176      19.86475385       0.01314113      -0.32606699      -0.45694758
C       15.26126400      15.89841863      18.66457287       0.40590191       0.64118532       0.11046924
C       15.78722317      16.29240423      17.43841032      -0.05882098      -0.10184880      -0.17881449
C       16.67038415      17.35038708      17.41625357       0.15130279       0.08478253      -0.09423605
C       17.05375375      17.99980896      18.59882383      -0.02960791       0.04468124       0.34481053
C       16.55695023      17.59394729      19.81953617       0.04696840      -0.02402476      -0.19852008
F       22.17254104      22.94714612      14.41230639      -0.01112708       0.12472316      -0.05929378
H        9.47746006      16.16007973      19.52278239      -0.02281213       0.05043179       0.01005441
H        9.19995983      14.77913183      20.60743100      -0.02386998       0.04082832       0.02060160
H       10.20902476      16.13802823      21.13002287      -0.02844199       0.05387556       0.04421519
H       11.85980338      15.56451653      19.32712336      -0.15191837      -0.23179162       0.13431097
H       10.33689340      13.62774389      16.78474036      -0.05869824       0.14548372      -0.04459399
H        9.26191222      14.73032913      17.67631783       0.04114379       0.02130065      -0.04992335
H       10.88828003      15.27939409      17.18068090      -0.04820712      -0.02599494      -0.03565168
H       10.82228901      11.86611980      23.02496990       0.04077644      -0.08241374       0.08392454
H       13.27016339      11.75679735      23.54144322       0.01454565      -0.04357038       0.04511091
H       14.80914944      13.19884871      22.20434343       0.00444451       0.02576963       0.02005113
H       13.06827934      13.37793726      18.47780032       0.19727723       0.22005832      -0.20734664
H       13.70476250      14.30464833      17.10858855      -0.06709536      -0.07485531       0.20908007
H       15.98339230      13.32110470      17.54196924       0.04144063      -0.04000094      -0.01179309
H       15.30407705      12.36874185      18.86563369       0.01231383      -0.01752977       0.01224060
H       14.77621829      12.07312772      17.20532161       0.02405790      -0.08678835      -0.04535632
H       14.67126571      15.44505409      22.96941883       0.10593269       0.10324331       0.05201810
H       16.00443201      16.55387854      22.61389469      -0.03903530      -0.12671818       0.11834890
H       13.54662945      18.46511760      24.65680142      -0.03915641       0.06307705       0.06550716
H       13.69033320      16.71025758      24.77084388      -0.01565743      -0.04705745       0.03541463
H       15.14309334      17.70878203      24.66647918       0.00628697       0.00283431       0.07901952
H       12.26671341      16.33183574      22.68821934      -0.06259916      -0.03936665       0.00448592
H       11.99942351      18.07807458      22.69462247      -0.08355953       0.03434487       0.01957078
H       12.59477139      17.27993064      21.23766343      -0.08857061      -0.03300477      -0.06130056
H       13.95682476      19.64854197      22.47057690       0.09082452      -0.19089560      -0.02810835
H       14.60671969      18.73857239      21.09184355       0.00249790       0.07011635       0.15511517
H       18.31358447      19.44181862      22.94462856      -0.04580678       0.15103576       0.03742407
H       17.90781357      22.31333686      22.58362269       0.21626107      -0.23541542      -0.02486814
H       19.90154023      22.38865382      20.49648788       0.17565928      -0.28410156       0.03936258
H       22.51650995      21.16649445      19.99570035      -0.05587936       0.26060290      -0.11418257
H       23.82374486      22.18784655      18.64215011      -0.12721840       0.26535719      -0.01323746
H       23.54424702      25.22103291      18.77473260       0.04431976      -0.12241283       0.00217779
H       25.76912880      23.45850289      17.63204479       0.05968812      -0.02201034      -0.01363057
H       24.82700041      24.66061526      16.74613712       0.05950169      -0.03014740      -0.03445253
H       25.95745492      25.17727837      17.99785244       0.06737257       0.02265488      -0.03935446
H       25.40376445      23.26657316      20.20178962       0.05986040      -0.04437601       0.01142393
H       25.35778843      25.01757071      20.42469529       0.06667816       0.02045743       0.07309103
H       23.98486203      24.02800676      20.92368801       0.05479468       0.00736085       0.08165116
H       20.72119223      20.37924175      15.90587836      -0.05312432       0.12880103      -0.11392783
H       20.10174396      22.01648240      15.71471974       0.10603514      -0.10045494       0.01553189
H       20.08050393      21.72821136      13.22919894      -0.02772395      -0.11497683       0.01260909
H       19.13854870      20.42692957      14.00773170       0.17703841       0.10599996      -0.05430723
H       21.09900674      15.13094181      11.75071007      -0.00066458      -0.17425530      -0.08184504
H       21.46625846      14.11746942      10.34897455      -0.02579979      -0.01158028       0.06555255
H       21.81942340      13.51896347      11.97931718      -0.01589172       0.06591016      -0.02134417
H       25.00667428      14.60605818      10.44504515       0.02125750      -0.12145761      -0.01523536
H       24.29419266      13.26381700      11.37960014       0.01349275       0.05955882      -0.06767977
H       23.67609873      13.66771204       9.76911147       0.08657272       0.01508781       0.06692230
H       25.69684997      15.87045157      12.12155297       0.05953514      -0.02732156      -0.02423305
H       24.77967814      17.02920939      11.13905218      -0.00458799       0.01405008      -0.02232463
H       24.99462522      17.29993448      12.87405866       0.03867809      -0.03580907       0.00573429
H       22.77533530      14.44671588      13.94471972       0.06683621      -0.00162209       0.01423963
H       24.46236452      14.13951825      13.48710880       0.01556648      -0.01218089       0.02630594
H       24.05214205      15.53763653      14.48818069       0.00152107       0.00033744       0.01834439
H       22.88925719      19.62280698      12.44977616      -0.10830580       0.23635597       0.05056797
H       22.20019656      21.26375633      12.36091029       0.04524983      -0.21029566      -0.01335603
H       23.97543604      21.21549041      14.08661290       0.02784360      -0.03470111       0.08451189
H       23.17989505      19.86350579      14.91027035      -0.00325221       0.13871282      -0.11570235
H       22.54606838      24.81878176      16.04792802      -0.11500285      -0.03257267       0.00817291
H       21.02141981      23.92987051      16.22199900       0.12899935       0.08080815       0.03869450
H       21.67208878      24.80323057      17.60056361       0.04221236      -0.07831717      -0.12395490
H       20.71614947      19.44935157      20.81535448      -0.02154293      -0.06590139       0.03479294
H       19.07177287      20.11191228      20.69559423       0.23740191      -0.08048740       0.07319719
H       21.18950699      19.93440021      18.50134350      -0.27268021      -0.04506039       0.08573886
H       19.61361412      17.97832417      19.03746778      -0.00091266       0.06169894      -0.06321835
H       19.54890006      18.58414292      17.36270008      -0.01716316       0.00619494       0.21888513
H       17.75125901      20.03569403      16.70663348      -0.09077812       0.06261128       0.10884793
H       16.46460290      20.41027399      17.89278067       0.08521166      -0.00002347      -0.04774095
H       18.04019595      21.68796186      19.26796268      -0.01078128       0.03924546      -0.09168655
H       18.12680019      22.31779897      17.60025946      -0.03516583      -0.07939568       0.11297848
H       20.85073105      22.01850744      24.78264060      -0.23064254       0.02450115      -0.04605749
H       19.27842442      22.85398000      24.74106122       0.05799102      -0.06230838       0.00327555
H       19.10431212      20.96509154      26.30955797       0.03664902      -0.05283440       0.01290627
H       19.71662591      19.84500084      25.08437585       0.02045594       0.03304540       0.04769409
H       17.10711151      21.43587544      24.92752156      -0.01968987      -0.07126206      -0.04075048
H       17.24940680      19.68454488      25.15530624      -0.06191241       0.03953821      -0.00182537
H       15.51130403      15.79722358      16.51928121      -0.00400789      -0.03132444      -0.01501700
H       17.08573886      17.67740729      16.47334867       0.00111473       0.01799009      -0.00470570
H       16.89377563      18.09474171      20.71145983      -0.01251785       0.05398566      -0.03627878
