151
 energy: -221.329731481174 gnorm: 0.009434279210 xtb: 6.7.1 (edcfbbe)
C            9.57071413312061       15.52495841547203       20.30274233970994
N           10.66272112699382       13.32547233110203       21.63354452305128
O           10.94154738500936       14.21903489538053       18.73321543355982
C           10.95610048429844       15.00640461691144       19.92245158851117
N           14.23471822269653       14.77375845346757       19.35448612964197
O           15.52931878882850       19.30439102825856       22.66361433416008
C           10.66837883919139       14.94355055923247       17.55381389016464
N           18.37311066300218       21.42138248113410       22.25753335719844
O           19.79061702136242       18.49754636106869       13.33041162116352
C           11.52391170095080       14.11895650071856       21.01406135702535
N           19.63237742639376       21.57129385532393       22.84640921002359
O           23.52747976313848       20.44105059662664       17.20756113426360
C           11.09332897562654       12.52834452357187       22.59545617401984
N           21.90376301549771       21.55851231389168       19.98102005882612
O           21.80973328107953       23.79987471259544       19.73363866526836
C           12.41460703852530       12.48433857601220       23.01094535174442
N           23.28223484774014       22.67707804850782       17.35410551898326
O           19.25654213519228       21.26045920740503       18.07806946031588
C           13.32170345747314       13.30784543467916       22.36895884342095
N           21.54334738372562       19.92740992158473       13.14628071530824
O           21.87022090851429       21.67015759689192       22.63215202890857
C           12.88781990260693       14.14078419691506       21.33976222407360
N           24.33951073256977       15.63786242853022       11.20828237566978
O           15.68651233368004       21.34538375394085       21.74930532943879
C           13.85512532945756       15.00874063968435       20.65717565586227
N           17.71816739495180       19.01015905317169       18.72322580921632
C           13.95291616682187       13.57978145134943       18.59844279444988
C           15.00623185129380       12.50286646181491       18.85345293893525
C           14.50873855947888       16.11024498517570       21.16161353641440
C           14.42183389410358       16.62826123691381       22.56292202059237
C           13.55809380112833       17.89097531395207       22.79336221928797
C           13.43473787186390       18.12330484831427       24.30222865713718
C           12.16860903431319       17.70611632200836       22.18608428606274
C           14.19888753079856       19.12479482487591       22.15002910450285
C           16.16719664739433       20.41945734616739       22.36791743663619
C           17.57414376072179       20.41083824074482       22.94341263756140
C           20.76097623342930       21.53709307877992       22.11991642818464
C           20.60781527786065       21.40518971568143       20.60014105013548
C           22.38974440293482       22.73129409249682       19.57139780461189
C           23.68731471429004       22.61389594040606       18.75979418492490
C           24.72472543826327       23.66121190918667       19.17649870459690
C           25.95565255716432       23.60511335837535       18.27686020021897
C           25.11236045609880       23.37680129281361       20.62828769440193
C           23.24462161201370       21.52283293432036       16.68084138668870
C           22.79603219279162       21.48726581318166       15.21131790519202
C           21.28391044805236       21.22919530952726       15.18101040715291
C           20.81072004867135       21.02108845364526       13.74453576155367
C           20.97228791798121       18.71307569396081       13.03772792744834
C           21.78971613888552       17.66003538166516       12.49342441307407
C           22.26809949037339       16.65224782038189       12.03546425370884
C           22.89668379138000       15.47137506338552       11.44289367784559
C           25.16789993843152       15.52081371647835       12.39465989163864
C           24.68064675199200       16.85230335447823       10.49178252679203
C           22.61784285237260       14.28234358747582       12.37612856011552
C           22.19623390023059       15.18200838398166       10.10206074769433
C           22.96284341160429       20.17231711956734       13.05964028208207
C           23.55075398196663       20.38450827743269       14.45756287877951
C           22.80736272801517       23.95807134397096       16.87204924782945
C           19.99906260947007       20.08858502043534       20.12185391248649
C           19.85407020372957       20.07696217941074       18.58786839733100
C           19.03858166006216       18.85151276381729       18.15450939767191
C           17.06418204782075       20.17037291386096       18.14563638970735
C           17.89751139948758       21.40983560598662       18.46647132180635
C           19.66312959985294       21.84004810519965       24.27743623758521
C           18.91430622388652       20.73854234131745       25.02234587798879
C           17.49578031917751       20.63639533346760       24.46689142356515
C           15.34323619997419       16.58891165191948       20.10722700630571
C           15.15264468194495       15.72087271946754       19.00066134243577
C           15.83998917307999       15.90597385506975       17.80633474786307
C           16.69399417243264       16.98305295751878       17.70105393189428
C           16.88594119821845       17.85368299666092       18.78178393079628
C           16.24068135813595       17.64508248824551       19.98321359626977
F           23.07417633223078       22.68849174129036       14.55360726532421
H            9.21768545635826       16.24512295800851       19.56953738771218
H            8.88023496139816       14.68826175105274       20.35688694473238
H            9.61834629125526       16.00892362401546       21.27403384816873
H           11.64153314195911       15.85623354895126       19.76342528840163
H           11.27512853254365       15.85513644114179       17.50780063626735
H           10.93509332347139       14.28793538634775       16.72891424581655
H            9.61026531269026       15.20948594791783       17.47896304469051
H           10.33614213159074       11.90305368892150       23.04961089274239
H           12.72357518447020       11.82383774678092       23.80551879990767
H           14.36662982814352       13.30742288331195       22.64507852297351
H           12.96262290916870       13.21267431074517       18.87495999679097
H           13.93460384154909       13.84495816480462       17.53872397112104
H           15.00674906757615       12.21878287594700       19.90320531589873
H           14.78767326679467       11.62399260553008       18.25479329535541
H           15.99560868626325       12.87177174952554       18.59205414149137
H           14.00598663788694       15.83674646881707       23.18910726506729
H           15.43113792637403       16.84799416815806       22.91446873784837
H           14.41897902318706       18.23440078915382       24.75016319011931
H           12.85911359449861       19.02414552679596       24.50195751103139
H           12.93137781556341       17.28337803877280       24.77348748301344
H           11.53311104076960       18.55793433821064       22.41436939940830
H           12.23567352803273       17.60566262257434       21.10635096561153
H           11.70519779065600       16.80863222762993       22.58749442794648
H           13.61555895877156       20.02662456969780       22.36375981823089
H           14.26433329054189       19.00936532941391       21.06336792977020
H           18.02588189323289       19.43133603626313       22.75262325783680
H           17.86198632116732       22.30677091245110       22.26045392996541
H           19.99619379904767       22.25097287735672       20.26288078687761
H           22.47369041059763       20.73097446143912       19.89981063271610
H           24.11814113336202       21.61819285026650       18.90257050335052
H           24.27116296738794       24.65510251654315       19.12605113067732
H           25.72149200927842       23.91783584321751       17.26176139758013
H           26.72705887642157       24.26333909795877       18.66839548807853
H           26.35041465107572       22.59086952096570       18.24194601140110
H           25.61880843553479       22.41659449570428       20.70240334569481
H           25.77849749066245       24.15051229688125       20.99928762220830
H           24.22854839988944       23.34644740437226       21.26354238856227
H           21.09104856580779       20.32682034008368       15.76385393226195
H           20.73900078977828       22.04999816956995       15.64799844709862
H           20.99010604489100       21.92426537760528       13.15597381058372
H           19.74812687646770       20.77413586113722       13.72692377859913
H           25.11459276963463       14.51137379703711       12.79283221710619
H           26.19972616419308       15.71053423289624       12.10563566957990
H           24.89348705267208       16.23867976803604       13.18353202880610
H           24.57774609469535       17.75650746282701       11.11172210056760
H           25.71762465461882       16.77379057218892       10.16504307472892
H           24.05721547025777       16.96607284790091        9.61002399273651
H           23.10511733696391       13.39429173161637       11.98337036591612
H           22.96875475458226       14.47498547410321       13.38530297862393
H           21.54543833646542       14.10865796358285       12.42093147024061
H           22.67444166989942       14.32254443564613        9.63868557923705
H           21.14648469307251       14.96007491157045       10.27828787170499
H           22.24851126584168       16.02831118613926        9.42317503565826
H           23.44692685328601       19.32346129249548       12.57368028878668
H           23.12146337028561       21.07093957756762       12.45485906824341
H           24.59996339149455       20.67025120028375       14.37754622178963
H           23.48319469503765       19.47104228990726       15.04849204502410
H           21.95010822533794       23.83911161423253       16.21575472493680
H           22.48891855807144       24.54461696293263       17.73151295521292
H           23.59405623296583       24.49051649727749       16.33653099857369
H           20.64673726268021       19.26011829639905       20.41084150189724
H           19.01620519500347       19.94738048776706       20.56485674977836
H           20.84473224169686       20.05627972147102       18.11903735057945
H           19.49314868982663       17.94035431625744       18.54638387498925
H           19.02903564216361       18.79880580361272       17.04931785480685
H           16.94705335030318       20.06625560720555       17.05037779814732
H           16.07493341730998       20.28198559104226       18.59674187299346
H           17.82708943609290       21.61687595242723       19.54031973181436
H           17.53286597443374       22.27383019309780       17.90828717096014
H           20.71082448771612       21.89184694241146       24.57220306510837
H           19.18803398141663       22.81136171744450       24.46098013351826
H           18.89032982881405       20.96919497475456       26.08672201195748
H           19.43609407472297       19.79029058904535       24.88422266249096
H           16.94855513267176       21.56164901704793       24.66810043643120
H           16.95746981925744       19.80783186144419       24.92585122747529
H           15.70695218856190       15.23537226192125       16.97107949129678
H           17.22143764933833       17.15758426899369       16.77431207726195
H           16.45580295864644       18.31092290712924       20.80051330259615
