151
 energy: -221.331176482661 gnorm: 0.006263034007 xtb: 6.7.1 (edcfbbe)
C            9.82906726366421       15.12975085861773       20.69171095367969
N           11.31751930410346       12.87124436925693       21.33837630559390
O           11.04085664136247       14.40433009775197       18.68691177227936
C           11.18082234646657       14.89470616095307       20.02114630458905
N           14.38334341959429       15.00094856453437       18.84550812090279
O           16.06105739188719       18.99285549016557       22.72791012267894
C           10.70185255361389       15.38853662703513       17.73605400049789
N           18.77250234380459       21.25337063298371       22.41382070997422
O           19.26660951340931       18.34204614498362       14.16885333455976
C           11.99505659095675       13.86140688962494       20.77673180113904
N           20.07710289011521       21.39090120501248       22.89609315114903
O           22.98619485332911       20.93738643655752       16.77199219530428
C           11.96771249984077       11.93862968349579       22.01220829430738
N           21.94188793882798       21.86577205842220       19.79746228411346
O           21.28442983564458       23.99004881976918       19.42651369526340
C           13.34112204226584       11.95568800879335       22.19513132190708
N           22.57390858172167       23.14330635094287       16.87571967373322
O           19.67345915857987       21.34435128262841       17.97139726012823
C           14.05830365126640       12.98265248772246       21.60785755395333
N           20.61634743281052       19.88613512595871       13.18759551613977
O           22.27278735840262       21.59287485065054       22.44904131743632
C           13.39165062151529       13.95368823908940       20.86223248386341
N           22.70929451774539       14.63332196171878       12.31902270057624
O           16.04063131886516       21.17733088157470       22.22705223267453
C           14.18471629543544       15.00400141961372       20.20851917702546
N           17.90042538198919       19.24615294559941       18.48771749073208
C           14.01084078486344       13.93871492320701       17.94478306233881
C           15.07908609892108       12.84753175976513       17.90325666220139
C           14.88985224352998       16.02993837609965       20.79579766071621
C           14.98360241309721       16.32537257356081       22.25904835283630
C           14.13232153640772       17.50493801299595       22.78483971084592
C           14.14966822605663       17.46820796864281       24.31597915038520
C           12.69178703117041       17.39482081798812       22.28758228021635
C           14.69325641490136       18.84872924741947       22.30631089778629
C           16.61403367438092       20.18381646067948       22.61855892801642
C           18.05952774274764       20.17365529598279       23.08826175346274
C           21.11793616807754       21.47773587858404       22.05289532244782
C           20.77733757503171       21.48323115506964       20.56114733911567
C           22.05859881035539       23.06221972527727       19.21801602679994
C           23.20114709131900       23.16413487592039       18.20058066892324
C           24.10015684928076       24.37995688946016       18.45173311585725
C           25.22325863147188       24.44473885736894       17.41934607270473
C           24.68467976010276       24.25340631840028       19.85842979726132
C           22.54125356529766       21.96423027986601       16.25104189556135
C           21.93620307152732       21.83040799305337       14.83955213474298
C           20.44657624734630       21.49742212302019       14.98606561844236
C           19.83064956904000       20.99532532478588       13.67944143805064
C           20.31998076562956       18.63330195889286       13.59791621126586
C           21.32205254658342       17.64579677214628       13.29720614470505
C           22.15353793479575       16.78749631614339       13.15060040429055
C           23.24115493695486       15.82662728043343       12.98673588075844
C           21.58090333975528       14.02887318417545       12.99880361259132
C           23.69325923353441       13.62733494682525       11.97791024268407
C           24.30281554771752       16.50444334813895       12.10414636122220
C           23.82845399217293       15.57246149088230       14.39318955323126
C           21.95359314337191       20.29483228947791       12.82087952882242
C           22.70201567399605       20.74213820716980       14.07643344877216
C           21.87710816576418       24.34521004214579       16.46995797896036
C           20.24131272231141       20.14029749420968       20.05275046191882
C           20.14486219760160       20.11818505581256       18.51496391742052
C           19.25272417298797       18.95418010619190       18.06221496350506
C           17.41862873615434       20.43118501488441       17.80337357919383
C           18.30327446410089       21.59668382310178       18.23920797824750
C           20.24301422208407       21.54416654162529       24.33485266101925
C           19.55602675229263       20.39374344126623       25.06476283356414
C           18.09587266390288       20.32140438330975       24.62281612802073
C           15.58027127079671       16.69210229791780       19.73733388205346
C           15.24437520044207       16.01536647066912       18.53675439731815
C           15.77445615666309       16.40155867110128       17.31027511686071
C           16.64507860445413       17.46875182860860       17.28373953341267
C           16.99960399390896       18.13666448191432       18.46468368866883
C           16.48338975663220       17.75104484087186       19.68340385348175
F           22.07562597750250       23.01570724313815       14.10744009381294
H            9.27957665155713       15.91354741714277       20.17887307467906
H            9.25718939545147       14.20824437217530       20.66761453804395
H            9.97962912196584       15.42718859394093       21.72545744245983
H           11.75400943861509       15.83554086257762       19.98524277168592
H            9.69602836950889       15.78515125937260       17.90130241730346
H           11.42396429598146       16.21361946663609       17.75723791479224
H           10.73968326412838       14.89509726335276       16.76695124869398
H           11.34809284855024       11.15473805430427       22.42991030585660
H           13.83430727768063       11.18864988217560       22.76991703564037
H           15.13301385263247       13.03787737746806       21.70819995249792
H           13.05599913993489       13.51991256733027       18.26865590313250
H           13.87639506103815       14.36977989560482       16.95083979379711
H           16.03992206907474       13.26899694934474       17.61633810586318
H           15.18088712015195       12.38261754534536       18.88085523201057
H           14.79974408036279       12.08505657935035       17.18248840653168
H           14.67400476186220       15.43224210460678       22.80562209736416
H           16.02670599004240       16.53313045198372       22.50458578571248
H           15.17134867340588       17.50444503028256       24.68564243123591
H           13.60276080775029       18.31513862251008       24.72281814502383
H           13.68191270121454       16.55417029759935       24.67395411770291
H           12.29376639417651       16.41015616965436       22.52087050078512
H           12.06397384794580       18.14522100064942       22.76347566496037
H           12.64780517114317       17.54302497761763       21.21075207438145
H           14.11452033135566       19.68310678179759       22.71655658060420
H           14.66429847860012       18.91757460931061       21.21490263736501
H           18.52367425083946       19.22364249782785       22.80371809079022
H           18.24540047359651       22.12169676919126       22.53016421794351
H           20.03706376095620       22.27378413431637       20.39825081711257
H           22.63286871393915       21.15209213360916       19.62561547385437
H           23.81309920334277       22.25942915714499       18.25610996321938
H           23.49649514048495       25.28947478544629       18.40522148289418
H           25.83509903163645       23.54699803220424       17.47688913570460
H           24.83166685476856       24.52542118198116       16.40863996030501
H           25.85547731453475       25.30651413709709       17.61548624263965
H           25.26716526499616       23.33956067471713       19.94583307893869
H           25.33109722610886       25.09806831663352       20.07308848029122
H           23.89346411973700       24.22233073826403       20.60526744262519
H           20.36404113904144       20.71703889370451       15.74388150702398
H           19.90185014969951       22.36750357574660       15.35125028456658
H           19.82866202618899       21.78251985409258       12.92375903163015
H           18.81001364147787       20.65228615514659       13.85721955988436
H           20.87749785300364       14.80482180532144       13.30819679195951
H           21.07651875579236       13.36049508749702       12.29841267910068
H           21.87436447870104       13.44227836631257       13.88403793403989
H           24.13263476885836       13.13190479635376       12.85716057099513
H           23.19574029674574       12.86691478971778       11.37744452468670
H           24.48667585015582       14.06411071316009       11.37942072606608
H           25.24281846857433       15.96302223630644       12.14740005200700
H           23.95454482280708       16.54736408525893       11.07612566907092
H           24.47724796390742       17.51614119045290       12.46201165189136
H           23.06984574579197       15.16977077704002       15.06025856243503
H           24.65726142605967       14.87226972541470       14.32798883519484
H           24.19129231841116       16.50725470717854       14.81214932810889
H           22.47760500761898       19.46672177808377       12.34475936031046
H           21.87099290618256       21.12403029471933       12.11480929224471
H           23.68799777660007       21.13017521930452       13.81616038289481
H           22.83057634815933       19.89423404786470       14.75187034826940
H           21.04516124451773       24.11460544428830       15.81411739811194
H           21.47756878165759       24.82057570508938       17.36512408949112
H           22.55126063776805       25.03154716312607       15.95728874550717
H           20.90682075573594       19.33526338227187       20.36392411587437
H           19.25033819686935       19.97046651277469       20.46863888315576
H           21.14377973438627       20.00663961838991       18.07637160335896
H           19.58332024368995       18.02520787640224       18.52922978935734
H           19.33196672605107       18.83831452614465       16.96341778801854
H           17.45906819617458       20.31941028600495       16.70527986531061
H           16.38746571708513       20.62340539825502       18.10407162786558
H           18.14716823342401       21.77680827287861       19.30923589522710
H           18.06590023243642       22.50496011633265       17.68305794323547
H           21.31426488707978       21.57213478349987       24.53344105959383
H           19.79792046752271       22.50001808304832       24.63598406081359
H           19.62236852860752       20.55756071857135       26.13881760719098
H           20.05998567245368       19.45694356148488       24.82361915337605
H           17.57523704650094       21.24222393367412       24.90257566687101
H           17.58566527209774       19.47790097213974       25.08813024547105
H           15.52152420574876       15.88049178602128       16.39921478407202
H           17.07915795088515       17.78317083287069       16.34408034531252
H           16.81007060219590       18.26885225583480       20.56924955724511
