151
Properties=species:S:1:pos:R:3:MACE_forces:R:3 energy:=T -221.329731481174=T gnorm:=T 0.009434279210=T xtb:=T 6.7.1=T (edcfbbe)=T MACE_energy=-90873.29589818466 pbc="F F F"
C        9.57071413      15.52495842      20.30274234       0.23965869      -0.12295871      -0.25044801
N       10.66272113      13.32547233      21.63354452      -0.27826319       0.07949820      -0.13090134
O       10.94154739      14.21903490      18.73321543      -0.09772607      -0.00146400       0.16325300
C       10.95610048      15.00640462      19.92245159      -0.03172997       0.23589680       0.00444335
N       14.23471822      14.77375845      19.35448613      -0.27031335       0.12154126       0.00390912
O       15.52931879      19.30439103      22.66361433      -0.15489419      -0.63729476       0.34834987
C       10.66837884      14.94355056      17.55381389       0.02800491       0.00476420       0.16086046
N       18.37311066      21.42138248      22.25753336      -0.37910032       0.34698395      -0.09844473
O       19.79061702      18.49754636      13.33041162       0.94058004       0.13293463      -0.14325390
C       11.52391170      14.11895650      21.01406136       0.34657629       0.14207619      -0.15573171
N       19.63237743      21.57129386      22.84640921      -0.69327850       0.05739819       0.79763629
O       23.52747976      20.44105060      17.20756113      -0.25360216       0.37753588      -0.28913307
C       11.09332898      12.52834452      22.59545617       0.03799302      -0.18395273       0.18009714
N       21.90376302      21.55851231      19.98102006      -0.29097699      -0.67739063       0.17698241
O       21.80973328      23.79987471      19.73363867       0.17128968      -0.33403840       0.02302821
C       12.41460704      12.48433858      23.01094535       0.00595252       0.02061174      -0.01394213
N       23.28223485      22.67707805      17.35410552       0.16284361       0.17033476       0.21122445
O       19.25654214      21.26045921      18.07806946      -0.05509248      -0.05474949       0.01868403
C       13.32170346      13.30784543      22.36895884      -0.10255986      -0.01974743      -0.10192881
N       21.54334738      19.92740992      13.14628072       0.14624604       0.38705461      -0.06820875
O       21.87022091      21.67015760      22.63215203      -0.77451897      -0.21211475      -0.21335748
C       12.88781990      14.14078420      21.33976222      -0.18181757      -0.24456969       0.21113277
N       24.33951073      15.63786243      11.20828238      -0.05630869      -0.06953835       0.03172398
O       15.68651233      21.34538375      21.74930533       0.33350373      -0.49144566       0.33185247
C       13.85512533      15.00874064      20.65717566       0.07248305       0.28640531       0.32726710
N       17.71816739      19.01015905      18.72322581      -0.12910400      -0.15447439      -0.22038339
C       13.95291617      13.57978145      18.59844279       0.04073909      -0.54388140      -0.07049483
C       15.00623185      12.50286646      18.85345294      -0.10773883       0.18899184      -0.10053294
C       14.50873856      16.11024499      21.16161354      -0.20661099      -0.36371584       0.10869825
C       14.42183389      16.62826124      22.56292202      -0.14009209       0.10148301      -0.07418709
C       13.55809380      17.89097531      22.79336222       0.21731833       0.11534299       0.08566968
C       13.43473787      18.12330485      24.30222866       0.08178396      -0.01372038      -0.21264656
C       12.16860903      17.70611632      22.18608429       0.25916434       0.13571603      -0.01937503
C       14.19888753      19.12479482      22.15002910      -0.46359129       0.08343201      -0.29546879
C       16.16719665      20.41945735      22.36791744       0.17191946       1.06666280      -0.60184677
C       17.57414376      20.41083824      22.94341264      -0.15230033      -0.00486653       0.16697876
C       20.76097623      21.53709308      22.11991643       1.29199623       0.19073693      -0.39815526
C       20.60781528      21.40518972      20.60014105       0.07107389       0.18527030      -0.06862726
C       22.38974440      22.73129409      19.57139780       0.10184042       0.59478220      -0.11627011
C       23.68731471      22.61389594      18.75979418       0.06776827       0.03984986       0.35164030
C       24.72472544      23.66121191      19.17649870      -0.03729755      -0.13104932       0.00479043
C       25.95565256      23.60511336      18.27686020      -0.26296391       0.06791935       0.00228585
C       25.11236046      23.37680129      20.62828769      -0.25259469       0.13259232      -0.10544830
C       23.24462161      21.52283293      16.68084139       0.29464161      -0.89459020       0.01175501
C       22.79603219      21.48726581      15.21131791      -0.13185415      -0.63235900       0.16946598
C       21.28391045      21.22919531      15.18101041       0.12154244       0.15436873      -0.16998148
C       20.81072005      21.02108845      13.74453576      -0.45003890       0.01235012       0.25899220
C       20.97228792      18.71307569      13.03772793      -1.50621770       0.00563754       0.25397841
C       21.78971614      17.66003538      12.49342441       0.24497824      -1.07311520      -0.31207486
C       22.26809949      16.65224782      12.03546425      -0.03475316       1.03313125       0.38051174
C       22.89668379      15.47137506      11.44289368      -0.11615105      -0.54758223      -0.27539665
C       25.16789994      15.52081372      12.39465989      -0.05336250      -0.02333824       0.06632426
C       24.68064675      16.85230335      10.49178253       0.05425989       0.07412644      -0.06781209
C       22.61784285      14.28234359      12.37612856       0.08215721       0.07687670      -0.03485713
C       22.19623390      15.18200838      10.10206075       0.04450417       0.01627113       0.04003931
C       22.96284341      20.17231712      13.05964028       0.44191527      -0.03073768       0.07457999
C       23.55075398      20.38450828      14.45756288      -0.11175385       0.12333532       0.02809022
C       22.80736273      23.95807134      16.87204925      -0.11841324       0.48816121      -0.19602644
C       19.99906261      20.08858502      20.12185391      -0.12721374       0.34470556      -0.31978622
C       19.85407020      20.07696218      18.58786840       0.29644112      -0.41728332      -0.03836516
C       19.03858166      18.85151276      18.15450940       0.27648163       0.21040661      -0.05993011
C       17.06418205      20.17037291      18.14563639       0.02770747       0.39736744      -0.06725210
C       17.89751140      21.40983561      18.46647132      -0.21327908       0.02333534      -0.04989405
C       19.66312960      21.84004811      24.27743624       0.22735184      -0.14105677       0.10858834
C       18.91430622      20.73854234      25.02234588      -0.11869589       0.29532907      -0.07988539
C       17.49578032      20.63639533      24.46689142       0.20207008      -0.28716580      -0.08399632
C       15.34323620      16.58891165      20.10722701       0.04789348      -0.24670080      -0.43444191
C       15.15264468      15.72087272      19.00066134       0.29476296       0.55918586       0.13101408
C       15.83998917      15.90597386      17.80633475      -0.01213252      -0.14919455      -0.19771229
C       16.69399417      16.98305296      17.70105393       0.07443866       0.05142856      -0.06009667
C       16.88594120      17.85368300      18.78178393       0.09436042       0.14878324       0.32679015
C       16.24068136      17.64508249      19.98321360       0.00245795      -0.03137562      -0.17444646
F       23.07417633      22.68849174      14.55360727       0.00325780       0.17899736      -0.13870948
H        9.21768546      16.24512296      19.56953739      -0.01528306       0.05099535       0.00310582
H        8.88023496      14.68826175      20.35688694      -0.01356659       0.03946165       0.04992636
H        9.61834629      16.00892362      21.27403385      -0.05412606       0.04500416       0.02275869
H       11.64153314      15.85623355      19.76342529      -0.16794768      -0.25036845       0.05959791
H       11.27512853      15.85513644      17.50780064      -0.03481780      -0.04530227      -0.04887633
H       10.93509332      14.28793539      16.72891425      -0.04838788       0.08242697      -0.05403570
H        9.61026531      15.20948595      17.47896304       0.07455148       0.01613091      -0.03556085
H       10.33614213      11.90305369      23.04961089       0.06767839      -0.05899960       0.09662839
H       12.72357518      11.82383775      23.80551880      -0.01068776      -0.01520119       0.02629236
H       14.36662983      13.30742288      22.64507852       0.00764134       0.01841862       0.00308568
H       12.96262291      13.21267431      18.87496000       0.25560146       0.18138840      -0.17281643
H       13.93460384      13.84495816      17.53872397      -0.12863728      -0.02536874       0.15635720
H       15.00674907      12.21878288      19.90320532       0.00551936      -0.02125147       0.02425186
H       14.78767327      11.62399261      18.25479330       0.03131941      -0.11591585      -0.02793046
H       15.99560869      12.87177175      18.59205414       0.04602370      -0.04286546       0.00738257
H       14.00598664      15.83674647      23.18910727       0.09559945       0.09083243       0.05983482
H       15.43113793      16.84799417      22.91446874      -0.04961720      -0.11879457       0.11074275
H       14.41897902      18.23440079      24.75016319       0.01547017      -0.00191478       0.07715649
H       12.85911359      19.02414553      24.50195751      -0.04037505       0.06205814       0.05265061
H       12.93137782      17.28337804      24.77348748      -0.03171949      -0.05574819       0.05649550
H       11.53311104      18.55793434      22.41436940      -0.08519121       0.04703163       0.02838637
H       12.23567353      17.60566262      21.10635097      -0.04477367      -0.02812609      -0.05651891
H       11.70519779      16.80863223      22.58749443      -0.05209057      -0.05963379       0.01169460
H       13.61555896      20.02662457      22.36375982       0.10109294      -0.20414824      -0.03392175
H       14.26433329      19.00936533      21.06336793      -0.01207408       0.05566542       0.20687651
H       18.02588189      19.43133604      22.75262326      -0.07200361       0.14776905       0.01696311
H       17.86198632      22.30677091      22.26045393       0.21482046      -0.21884120      -0.00316468
H       19.99619380      22.25097288      20.26288079       0.13002568      -0.31710597       0.06032930
H       22.47369041      20.73097446      19.89981063      -0.01697454       0.25796866      -0.13059871
H       24.11814113      21.61819285      18.90257050      -0.07692927       0.30160825      -0.02962429
H       24.27116297      24.65510252      19.12605113       0.02381961      -0.14839558       0.00024487
H       25.72149201      23.91783584      17.26176140       0.04920990      -0.03404520      -0.04703733
H       26.72705888      24.26333910      18.66839549       0.07327310       0.01380897      -0.03762675
H       26.35041465      22.59086952      18.24194601       0.05934387      -0.02446040      -0.01468445
H       25.61880844      22.41659450      20.70240335       0.05816262      -0.05640396       0.02236868
H       25.77849749      24.15051230      20.99928762       0.05821416       0.01076818       0.06324186
H       24.22854840      23.34644740      21.26354239       0.07191539       0.00976511       0.08179950
H       21.09104857      20.32682034      15.76385393      -0.00283309       0.09415112      -0.04013272
H       20.73900079      22.04999817      15.64799845       0.08191533      -0.06506945       0.03221959
H       20.99010604      21.92426538      13.15597381      -0.05359635      -0.09763754       0.02960399
H       19.74812688      20.77413586      13.72692378       0.24418416       0.08948199      -0.04327738
H       25.11459277      14.51137380      12.79283222       0.03259046       0.06408728       0.07358763
H       26.19972616      15.71053423      12.10563567      -0.01517617      -0.00456206       0.04899693
H       24.89348705      16.23867977      13.18353203       0.03146906      -0.05427190      -0.04384951
H       24.57774609      17.75650746      11.11172210      -0.01291447      -0.09126278      -0.08799085
H       25.71762465      16.77379057      10.16504307      -0.06512606       0.07307840       0.00073608
H       24.05721547      16.96607285       9.61002399       0.04600133       0.04451547       0.02788021
H       23.10511734      13.39429173      11.98337037       0.03443759      -0.06028616      -0.01275530
H       22.96875475      14.47498547      13.38530298      -0.00056365      -0.02901753       0.00277296
H       21.54543834      14.10865796      12.42093147       0.03710189       0.00161929      -0.00081366
H       22.67444167      14.32254444       9.63868558       0.00745408      -0.01104304      -0.00186057
H       21.14648469      14.96007491      10.27828787       0.00242210       0.01932609      -0.02479771
H       22.24851127      16.02831119       9.42317504      -0.00303562      -0.02332418       0.01280119
H       23.44692685      19.32346129      12.57368029      -0.08147181       0.22878659       0.04707022
H       23.12146337      21.07093958      12.45485907       0.00730051      -0.17523954       0.01172781
H       24.59996339      20.67025120      14.37754622      -0.02886053      -0.03945874       0.07564837
H       23.48319470      19.47104229      15.04849205       0.02062349       0.10299091      -0.11282524
H       21.95010823      23.83911161      16.21575472       0.12555179       0.04997318       0.07009389
H       22.48891856      24.54461696      17.73151296       0.04527853      -0.10117837      -0.12043949
H       23.59405623      24.49051650      16.33653100      -0.12918368      -0.00757230       0.00481429
H       20.64673726      19.26011830      20.41084150      -0.02088208      -0.05559349       0.04185296
H       19.01620520      19.94738049      20.56485675       0.26866325      -0.03423331       0.00022562
H       20.84473224      20.05627972      18.11903735      -0.22683221      -0.07576644       0.13532962
H       19.49314869      17.94035432      18.54638387      -0.01836767       0.06007983      -0.06087495
H       19.02903564      18.79880580      17.04931785       0.01869368      -0.02303002       0.23117229
H       16.94705335      20.06625561      17.05037780      -0.00349372       0.01859023       0.19638488
H       16.07493342      20.28198559      18.59674187       0.12179297       0.01280075      -0.10423160
H       17.82708944      21.61687595      19.54031973      -0.00872082      -0.01792124      -0.11138945
H       17.53286597      22.27383019      17.90828717      -0.03231110      -0.10678095       0.15030413
H       20.71082449      21.89184694      24.57220307      -0.22529865       0.03705558      -0.04359242
H       19.18803398      22.81136172      24.46098013       0.06964607      -0.08315802      -0.00053018
H       18.89032983      20.96919497      26.08672201       0.02623360      -0.05531484      -0.00415704
H       19.43609407      19.79029059      24.88422266       0.02118332       0.02892405       0.05005491
H       16.94855513      21.56164902      24.66810044      -0.00766344      -0.07269662      -0.03858510
H       16.95746982      19.80783186      24.92585123      -0.04162154       0.08069218      -0.00670792
H       15.70695219      15.23537226      16.97107949      -0.01732916      -0.03229219      -0.02436050
H       17.22143765      17.15758427      16.77431208       0.01388349       0.01216072      -0.01396516
H       16.45580296      18.31092291      20.80051330       0.00115942      -0.01395477      -0.00310259
