151
Properties=species:S:1:pos:R:3:MACE_forces:R:3 energy:=T -221.330534766548=T gnorm:=T 0.008990931262=T xtb:=T 6.7.1=T (edcfbbe)=T MACE_energy=-90873.24095948451 pbc="F F F"
C        9.92184104      15.52239425      20.28276729       0.18445698      -0.18794574      -0.29535792
N       11.03644406      13.22783152      21.52944662      -0.31225004       0.09250641      -0.10237745
O       10.85408716      13.87269746      18.70322064      -0.06855394       0.06076474       0.13180624
C       11.15937743      14.81454284      19.73190279      -0.03103246       0.18811805      -0.02824782
N       14.35202700      14.92552237      18.97341058      -0.25996765       0.06161960       0.03227929
O       15.92855263      19.06105919      22.63142250      -0.04013880      -0.82359092       0.19760898
C       10.29960867      14.42306092      17.52729268       0.10990893      -0.07338498       0.18360263
N       18.48415973      21.47137274      22.51494353      -0.40759379       0.34107798      -0.05174628
O       19.65934889      18.14684547      13.92986125       0.61862252       0.21372877      -0.20046282
C       11.84233317      14.00009188      20.81383201       0.32697606       0.10237958      -0.18891045
N       19.74542036      21.69047505      23.07610524      -0.74713589      -0.04551403       0.80177715
O       23.27673386      20.88219608      17.02555757      -0.41726535       0.34417894      -0.25110413
C       11.54023861      12.45985526      22.47674217       0.11240053      -0.15907887       0.17260797
N       21.84080763      21.90775366      20.09357054      -0.08930971      -0.69628312       0.28197555
O       21.30857388      24.04746009      19.64312212       0.16670404      -0.17811910      -0.02674165
C       12.89549802      12.40477423      22.76597841      -0.02004791       0.05464531      -0.04638003
N       22.67257525      23.04809634      17.17574753       0.06866175       0.25263463       0.22311243
O       19.71895370      21.22285149      18.14054725      -0.07940776      -0.01974611       0.10163237
C       13.74322151      13.20906730      22.02875448      -0.11382056      -0.06827631      -0.10124521
N       20.98953194      19.86534310      13.27247319       0.02660702       0.37466330      -0.23135117
O       21.94971968      22.00022139      22.76023700      -0.49337770      -0.26070440      -0.07026536
C       13.22731934      14.03694663      21.03000369      -0.19152158      -0.30244729       0.21686539
N       23.10958402      15.03812690      11.20415653      -0.01011462       0.02624611      -0.05121313
O       15.73553071      21.26645751      22.27630360       0.32433880      -0.36108241       0.12270786
C       14.14414405      14.94584086      20.33617690       0.16257275       0.31699050       0.39319484
N       17.93000992      19.12774615      18.62478683      -0.09419897      -0.12103262      -0.20749695
C       13.95973023      13.86523553      18.07872254       0.04266700      -0.45911542      -0.22666172
C       15.08056195      12.84033004      17.91130549      -0.14618135       0.15232132      -0.03187657
C       14.90441064      15.93457125      20.92135400      -0.15551461      -0.35811558       0.05152843
C       14.97113814      16.30438356      22.36785093      -0.17614113       0.06405391      -0.05098790
C       14.08010022      17.49430380      22.79385329       0.22486393       0.19141532       0.09359524
C       14.11760048      17.60285800      24.32102267       0.04851134       0.00347638      -0.23533666
C       12.64213065      17.28399352      22.32310702       0.24649389       0.14179040       0.00658871
C       14.59041551      18.80495294      22.18161531      -0.57933047      -0.00517076      -0.13310192
C       16.37327721      20.29802091      22.62478750       0.15287670       1.11610643      -0.23272191
C       17.78811288      20.37281969      23.17501904      -0.18738408       0.01599932       0.17082261
C       20.83811448      21.76569334      22.30319029       1.05858780       0.30624181      -0.62267429
C       20.61354637      21.61001854      20.79444313       0.04131836       0.22627664      -0.09160392
C       22.04762156      23.08128916      19.49155123       0.00446600       0.44548267      -0.09910746
C       23.23685125      23.10338063      18.52536075       0.13571173       0.12064226       0.30526105
C       24.14958475      24.31035146      18.78041038      -0.01478617      -0.16978333       0.00012139
C       25.24208469      24.40769502      17.71939446      -0.26603971       0.00952086       0.04976405
C       24.76273809      24.14524462      20.17157668      -0.25639083       0.10742914      -0.10752412
C       22.75034030      21.88339307      16.52631505       0.54427440      -0.87541845      -0.05449087
C       22.16193463      21.73306081      15.11092380      -0.04547942      -0.55047809       0.15473925
C       20.71400769      21.24752289      15.24303114       0.07608909       0.10885830      -0.14932231
C       20.13364751      20.85628276      13.88508737      -0.35829274       0.02626024       0.35173557
C       20.71699968      18.55718250      13.44740729      -1.13934816      -0.23212763       0.31169395
C       21.73449949      17.64137586      13.00106442       0.59254508      -0.91697094      -0.15689615
C       22.52092167      16.77851955      12.70720489      -0.49777364       0.78281700       0.09602959
C       23.54136764      15.77904301      12.39641660       0.21995314      -0.08310466       0.14917740
C       21.80849086      14.41463497      11.33971978      -0.12169249      -0.05013493       0.00714782
C       24.07954342      14.09393210      10.68827307       0.01644067       0.03767981       0.01865172
C       24.84420801      16.54281653      12.10820501      -0.06805082      -0.06487250       0.03381727
C       23.71772750      14.91293438      13.66331183      -0.00512089      -0.05411506      -0.15941806
C       22.31283123      20.37438438      12.98848256       0.38700942       0.10649950       0.08750000
C       23.01280105      20.75003478      14.29648140      -0.13278776       0.07289777       0.03993215
C       21.94161489      24.21532850      16.72520951      -0.21286504       0.45918140      -0.17070575
C       20.10196354      20.23057661      20.36738376      -0.09001823       0.27727895      -0.45399555
C       20.15215328      20.06254593      18.83475024       0.28037062      -0.44280695       0.14695830
C       19.33240566      18.83132898      18.41857928       0.36486136       0.20322969      -0.10998176
C       17.53350554      20.23077042      17.77109852       0.15898723       0.38321554       0.08267389
C       18.32284996      21.45255460      18.23562112      -0.21865404      -0.04639485      -0.19140762
C       19.79968568      21.91684051      24.51223182       0.24357574      -0.11431422       0.09412427
C       19.13352576      20.75270906      25.24194503      -0.14616896       0.28120659      -0.06946020
C       17.71771467      20.55772720      24.70307182       0.22794601      -0.24520216      -0.10223839
C       15.63105804      16.55544176      19.86475385       0.05258757      -0.26263383      -0.45515399
C       15.26126400      15.89841863      18.66457287       0.32670565       0.56747112       0.21197672
C       15.78722317      16.29240423      17.43841032      -0.04789420      -0.10920742      -0.23811486
C       16.67038415      17.35038708      17.41625357       0.13806588       0.05229476      -0.09675853
C       17.05375375      17.99980896      18.59882383      -0.02180890       0.10336954       0.37961932
C       16.55695023      17.59394729      19.81953617       0.00849426      -0.04939127      -0.21262392
F       22.17254104      22.94714612      14.41230639      -0.01179955       0.14025337      -0.13209194
H        9.47746006      16.16007973      19.52278239      -0.01705001       0.04959253       0.02107484
H        9.19995983      14.77913183      20.60743100      -0.01002958       0.02493820       0.03728089
H       10.20902476      16.13802823      21.13002287      -0.04342445       0.05965352       0.03787596
H       11.85980338      15.56451653      19.32712336      -0.14370706      -0.23111568       0.13021634
H       10.33689340      13.62774389      16.78474036      -0.05535872       0.14149156      -0.03605727
H        9.26191222      14.73032913      17.67631783       0.04228871       0.02960408      -0.05575818
H       10.88828003      15.27939409      17.18068090      -0.04709745      -0.01399953      -0.03760400
H       10.82228901      11.86611980      23.02496990       0.03763624      -0.08422999       0.08284455
H       13.27016339      11.75679735      23.54144322       0.01312629      -0.02905045       0.03736547
H       14.80914944      13.19884871      22.20434343       0.01374865       0.02839632       0.01935091
H       13.06827934      13.37793726      18.47780032       0.16551196       0.23002372      -0.16653055
H       13.70476250      14.30464833      17.10858855      -0.06620799      -0.07386086       0.20950295
H       15.98339230      13.32110470      17.54196924       0.04391921      -0.03956912      -0.01167840
H       15.30407705      12.36874185      18.86563369       0.01338875      -0.01489863       0.01343055
H       14.77621829      12.07312772      17.20532161       0.02677466      -0.09296608      -0.04077754
H       14.67126571      15.44505409      22.96941883       0.10783907       0.10276937       0.03679805
H       16.00443201      16.55387854      22.61389469      -0.02880350      -0.12807306       0.11348960
H       13.54662945      18.46511760      24.65680142      -0.04737778       0.06047532       0.06939392
H       13.69033320      16.71025758      24.77084388      -0.02574581      -0.04875614       0.05280113
H       15.14309334      17.70878203      24.66647918       0.01221781      -0.00304749       0.07457993
H       12.26671341      16.33183574      22.68821934      -0.05593854      -0.05934260       0.01391168
H       11.99942351      18.07807458      22.69462247      -0.08279368       0.04349661       0.03813134
H       12.59477139      17.27993064      21.23766343      -0.06573663      -0.03531382      -0.07413739
H       13.95682476      19.64854197      22.47057690       0.09746087      -0.19451861      -0.04200846
H       14.60671969      18.73857239      21.09184355      -0.02426137       0.08314884       0.14118925
H       18.31358447      19.44181862      22.94462856      -0.05757734       0.13949269       0.01978646
H       17.90781357      22.31333686      22.58362269       0.20629101      -0.21068867      -0.02070264
H       19.90154023      22.38865382      20.49648788       0.17642313      -0.31525906       0.04709556
H       22.51650995      21.16649445      19.99570035      -0.07476267       0.25993302      -0.12372274
H       23.82374486      22.18784655      18.64215011      -0.12320031       0.26689796      -0.02368511
H       23.54424702      25.22103291      18.77473260       0.04770275      -0.13423349      -0.00248632
H       25.76912880      23.45850289      17.63204479       0.05675949      -0.00727507      -0.01842751
H       24.82700041      24.66061526      16.74613712       0.05577340      -0.03155694      -0.04033476
H       25.95745492      25.17727837      17.99785244       0.06603479       0.02601402      -0.04898894
H       25.40376445      23.26657316      20.20178962       0.06556176      -0.04950536       0.01232844
H       25.35778843      25.01757071      20.42469529       0.07437607       0.03427706       0.06687493
H       23.98486203      24.02800676      20.92368801       0.05959710       0.00916679       0.07685319
H       20.72119223      20.37924175      15.90587836      -0.05817057       0.14859019      -0.09724329
H       20.10174396      22.01648240      15.71471974       0.11602724      -0.11447094       0.01489421
H       20.08050393      21.72821136      13.22919894      -0.02735078      -0.11935059       0.03065205
H       19.13854870      20.42692957      14.00773170       0.19073445       0.12788748      -0.06417182
H       21.09900674      15.13094181      11.75071007      -0.01661331      -0.12736119      -0.04339794
H       21.46625846      14.11746942      10.34897455      -0.03904589      -0.01906348       0.06035031
H       21.81942340      13.51896347      11.97931718      -0.01220730       0.06635793      -0.03131502
H       25.00667428      14.60605818      10.44504515       0.03180971      -0.10591271      -0.01664405
H       24.29419266      13.26381700      11.37960014       0.00225372       0.05262122      -0.07496644
H       23.67609873      13.66771204       9.76911147       0.08853571       0.01288898       0.06811107
H       25.69684997      15.87045157      12.12155297       0.05178929      -0.02394023      -0.01959728
H       24.77967814      17.02920939      11.13905218       0.00197804       0.01690973      -0.02268117
H       24.99462522      17.29993448      12.87405866       0.04795553      -0.02664887      -0.00501550
H       22.77533530      14.44671588      13.94471972       0.07346155       0.00391157       0.01529762
H       24.46236452      14.13951825      13.48710880       0.01434708      -0.01955867       0.02528286
H       24.05214205      15.53763653      14.48818069      -0.00388629      -0.03303767       0.02178790
H       22.88925719      19.62280698      12.44977616      -0.10515710       0.17957670       0.04500346
H       22.20019656      21.26375633      12.36091029       0.07192830      -0.19273597       0.00814227
H       23.97543604      21.21549041      14.08661290       0.00881784      -0.03170228       0.07872693
H       23.17989505      19.86350579      14.91027035      -0.01095458       0.12743919      -0.13409816
H       22.54606838      24.81878176      16.04792802      -0.12036313      -0.02727772       0.02560438
H       21.02141981      23.92987051      16.22199900       0.12987123       0.08671916       0.04833117
H       21.67208878      24.80323057      17.60056361       0.03549416      -0.12941575      -0.15551436
H       20.71614947      19.44935157      20.81535448      -0.00964409      -0.06823597       0.03564066
H       19.07177287      20.11191228      20.69559423       0.22350473      -0.05103914       0.04621203
H       21.18950699      19.93440021      18.50134350      -0.25812703      -0.03597307       0.10416967
H       19.61361412      17.97832417      19.03746778       0.00809009       0.05626478      -0.06999237
H       19.54890006      18.58414292      17.36270008      -0.01155693       0.01064912       0.18617182
H       17.75125901      20.03569403      16.70663348      -0.08117656       0.03407731       0.11139108
H       16.46460290      20.41027399      17.89278067       0.08160436       0.00685973      -0.04506396
H       18.04019595      21.68796186      19.26796268      -0.01452796       0.02139957      -0.11102232
H       18.12680019      22.31779897      17.60025946      -0.04205680      -0.07388118       0.12066932
H       20.85073105      22.01850744      24.78264060      -0.22637928       0.02490855      -0.03697865
H       19.27842442      22.85398000      24.74106122       0.06615031      -0.07233264      -0.01108493
H       19.10431212      20.96509154      26.30955797       0.04366558      -0.05870233       0.01315070
H       19.71662591      19.84500084      25.08437585       0.03893076       0.01101695       0.04334037
H       17.10711151      21.43587544      24.92752156      -0.01283881      -0.06500451      -0.04088781
H       17.24940680      19.68454488      25.15530624      -0.05779997       0.04114661       0.01076212
H       15.51130403      15.79722358      16.51928121      -0.01663288      -0.03203873      -0.01076185
H       17.08573886      17.67740729      16.47334867      -0.00254095       0.00837087      -0.00644901
H       16.89377563      18.09474171      20.71145983      -0.03267068       0.05171701       0.00844501
