151
Properties=species:S:1:pos:R:3:MACE_forces:R:3 energy:=T -221.329819487212=T gnorm:=T 0.009156884849=T xtb:=T 6.7.1=T (edcfbbe)=T MACE_energy=-90873.31980236438 pbc="F F F"
C        9.52243095      15.61667137      20.69049560       0.19554308      -0.18796453      -0.24608918
N       10.72219362      13.29640710      21.78851086      -0.29801982       0.07097214      -0.06464933
O       10.45165855      14.10699534      18.98406358      -0.06705822      -0.00753620       0.19249169
C       10.76466560      14.97886189      20.06987533      -0.03059636       0.18258341      -0.01771326
N       13.94528748      15.03650777      19.16834714      -0.26860822       0.06490386       0.14743274
O       15.72694342      19.14093462      22.76859047      -0.15475319      -0.60649178       0.23674268
C        9.95701642      14.74761422      17.82922702       0.06528468      -0.00733525       0.13965198
N       18.50412289      21.33525380      22.45258231      -0.22238909       0.20702258      -0.04914050
O       19.66441075      18.18504437      13.13377628       0.79248337       0.15556938      -0.05933381
C       11.49016287      14.11469640      21.08422298       0.34456139       0.16829550      -0.17339927
N       19.78560135      21.45079226      22.99576880      -0.66570242       0.02707684       0.76079538
O       23.28804834      20.47155667      17.41951762      -0.25533021       0.20038513      -0.29188860
C       11.27100706      12.50102597      22.68878898       0.01080353      -0.14665605       0.15035520
N       21.86284170      21.55804404      20.00650947      -0.15914085      -0.83401239       0.08499905
O       21.68404814      23.80478004      19.98749374       0.15813451      -0.22538778       0.03266598
C       12.63157275      12.47941917      22.95051723       0.05129852       0.05783194      -0.07449813
N       22.96267695      22.70097203      17.40452511       0.25666568       0.03517755       0.13404196
O       19.50577885      21.12459811      18.08987814      -0.11352137      -0.01333030      -0.00739003
C       13.44257926      13.32742392      22.21948091      -0.20020481      -0.04991699      -0.07383697
N       21.34626050      19.69960422      13.29504566       0.13200606       0.37206612       0.04998253
O       22.01036391      21.48948749      22.66152666      -0.57855726      -0.18672561      -0.05330633
C       12.88101430      14.16815134      21.25685274      -0.17346939      -0.26293273       0.20122108
N       24.39780816      15.38469784      12.07381481      -0.02464397       0.03236228       0.09747928
O       15.79172942      21.26762188      22.05960168       0.28560467      -0.49880505       0.27177668
C       13.76721358      15.08513022      20.53402177       0.13874858       0.28659565       0.30147053
N       17.66065604      19.09978502      18.65635093      -0.23796773      -0.17982383      -0.14101750
C       13.51036162      13.97661234      18.29231355       0.05344168      -0.53267076      -0.14473080
C       14.61510166      12.94165205      18.08650207      -0.08820881       0.18531276      -0.01651478
C       14.55291387      16.07406172      21.08456828      -0.18449471      -0.30956321       0.06315454
C       14.63063650      16.46653314      22.52513211      -0.11904212       0.06278768      -0.05584551
C       13.78529736      17.69967697      22.92367641       0.19968328       0.16602414       0.07879574
C       13.78786626      17.82009022      24.44992369       0.05913433       0.02217242      -0.20570587
C       12.34929077      17.54594211      22.42435855       0.26724207       0.10763304       0.01455108
C       14.37068201      18.98179612      22.32190376      -0.55325660       0.04864742      -0.18989199
C       16.31690595      20.30113173      22.57011602       0.19288165       1.07595496      -0.46314112
C       17.73677480      20.28735399      23.11182828      -0.17255769      -0.02501121       0.07906705
C       20.87504334      21.40993086      22.21026222       1.10436566       0.09478544      -0.51796122
C       20.61719339      21.33085566      20.70012961       0.04553618       0.27315936      -0.06444926
C       22.28481107      22.78006742      19.68364842       0.06210630       0.56409140      -0.07222343
C       23.50872260      22.77883899      18.76302329       0.12121657       0.08299236       0.22357882
C       24.43388499      23.97894800      18.98961507      -0.03289239      -0.17842420       0.04088523
C       25.60196118      23.95483446      18.00668722      -0.29191731       0.03036505       0.01831723
C       24.95035627      23.92863930      20.42739870      -0.27039474       0.08969953      -0.08755291
C       22.93181784      21.49520948      16.82876794       0.34352883      -0.78584272      -0.00762429
C       22.45851265      21.34578983      15.37593727      -0.09063440      -0.59721994       0.07583711
C       20.98008303      20.94695852      15.35486019       0.11024800       0.20027929      -0.15811277
C       20.51288216      20.69932742      13.92183186      -0.39420513       0.03682800       0.24943338
C       20.84720845      18.49202461      12.96982523      -1.32359044      -0.15310628       0.10323196
C       21.78693141      17.58336583      12.36471900       0.40309815      -1.02608897      -0.51198605
C       22.48200331      16.75882285      11.82972337      -0.46619005       0.72968606       0.45514042
C       23.38336153      15.85355981      11.11958883      -0.05327168      -0.20189686      -0.24856735
C       25.18934868      16.44798544      12.66093318      -0.02337637      -0.01971488       0.06846583
C       25.25608969      14.32205969      11.59259678      -0.04003288      -0.01404972      -0.00939532
C       22.53511643      14.67752266      10.61106534       0.07295496       0.09032558       0.00527699
C       23.95366203      16.63821429       9.91606692       0.07177885      -0.09914283       0.10990582
C       22.74389643      20.05638068      13.24208977       0.44152483       0.05984142       0.04227556
C       23.29021110      20.27990717      14.65397891      -0.09955009       0.17326193       0.05557457
C       22.27727089      23.87892909      16.91846015      -0.29211389       0.43761014      -0.21016354
C       19.99601724      20.01121162      20.24108545      -0.10508145       0.35516149      -0.28281311
C       19.93061784      19.91693386      18.70459357       0.28151241      -0.45596931       0.11089956
C       19.01885544      18.74934448      18.29681805       0.39108195       0.23130278      -0.16420788
C       17.23559951      20.25861455      17.89568942       0.19232459       0.32634414       0.00268292
C       18.13474480      21.42279479      18.30400736      -0.18509945       0.01760839      -0.07360501
C       19.88790040      21.63363266      24.43662609       0.15334075      -0.15844900       0.03677351
C       19.14088574      20.51228866      25.15438389      -0.04780778       0.27018659      -0.06271904
C       17.70332725      20.45749403      24.64199502       0.26542096      -0.26363395      -0.07223125
C       15.27182038      16.65977156      20.00198235       0.00207115      -0.31204361      -0.45804591
C       14.86342903      15.98789701      18.82292644       0.39373625       0.60862184       0.08042243
C       15.36933489      16.34243851      17.57625173      -0.06248523      -0.09679171      -0.14020712
C       16.28694332      17.36776202      17.51364029       0.13900047       0.06290249      -0.07705031
C       16.72474432      18.02014188      18.67582393       0.02777483       0.08349394       0.26947825
C       16.23532520      17.66234032      19.91328323      -0.00397365      -0.02436251      -0.13605309
F       22.62915034      22.53974379      14.66740109      -0.00172351       0.14797248      -0.06403420
H        9.02217426      16.25774835      19.96983651      -0.02470538       0.06147495       0.00102506
H        8.84513522      14.83345451      21.01690933      -0.02600464       0.04175564       0.01079443
H        9.81258682      16.21883945      21.54680838      -0.01288878       0.03958779       0.04398572
H       11.44264665      15.76791508      19.70506190      -0.14335691      -0.22718436       0.10135871
H        8.95070490      15.14472774      17.98399273       0.04936328       0.00120587      -0.04975866
H       10.62309274      15.56000345      17.51738093      -0.05022020      -0.02601839      -0.03167228
H        9.92536864      13.98242449      17.05660883      -0.03502689       0.12649912      -0.05259842
H       10.58146265      11.86157118      23.22411523       0.07762470      -0.05628701       0.07257355
H       13.04201629      11.82048240      23.69757705       0.01345443      -0.06177068       0.05155007
H       14.51110824      13.34051494      22.37248592       0.03541299       0.02003525       0.01070050
H       12.62853979      13.50046853      18.72293383       0.18955457       0.21815581      -0.19834821
H       13.23079467      14.41593108      17.33199373      -0.11380770      -0.05564596       0.13759456
H       14.24963579      12.13148785      17.46294816       0.02052677      -0.09170033      -0.05824643
H       15.47677816      13.39827907      17.60278080       0.02616994      -0.06876854       0.01822673
H       14.93286981      12.53282621      19.04370365      -0.01516990      -0.02159489      -0.00549780
H       14.28782060      15.63086832      23.13566684       0.10345854       0.07206690       0.06776131
H       15.67110138      16.67518984      22.77796471      -0.04964261      -0.12878422       0.11670976
H       13.28515541      16.96638341      24.89534140      -0.01496710      -0.07552707       0.04801031
H       14.80626243      17.86124796      24.82632850       0.03450088       0.00090800       0.07927370
H       13.26798528      18.72440378      24.75930925      -0.03370770       0.04316826       0.06368198
H       11.93129717      16.61151771      22.79103688      -0.06074876      -0.01954688      -0.00297660
H       11.73119360      18.36691275      22.77800367      -0.08702539       0.04484620       0.02141019
H       12.32023025      17.53213804      21.33863312      -0.07450006      -0.01679357      -0.06226336
H       13.79638982      19.86030756      22.63188162       0.08010913      -0.18506064      -0.03941319
H       14.37093612      18.94004164      21.22881441       0.01910470       0.03255247       0.21569590
H       18.20160402      19.32543914      22.86851459      -0.10326289       0.16075964       0.05451440
H       17.99760967      22.21487356      22.51221195       0.10804885      -0.06681597       0.00685020
H       19.96076684      22.17147170      20.44546078       0.15102435      -0.29791423       0.02398800
H       22.42911788      20.75413006      19.76882044      -0.08021231       0.38220967      -0.02833842
H       24.07846442      21.85829526      18.91867231      -0.11966992       0.24455493      -0.02521698
H       23.86129799      24.90112430      18.86312875       0.03180162      -0.11734963       0.01503643
H       26.24086843      24.81781531      18.17068539       0.08183585       0.02960083      -0.02003822
H       26.19415499      23.05383674      18.15241724       0.08049254      -0.06070210      -0.01760620
H       25.25338760      23.97224121      16.97737183       0.04936397       0.00987292      -0.07358913
H       25.53602221      23.02699766      20.59203158       0.07412104      -0.05149195       0.00184262
H       25.57696527      24.79256274      20.62940428       0.06535677       0.02291906       0.06073067
H       24.12246919      23.93039696      21.13267738       0.03844097       0.02671759       0.05956251
H       20.88268969      20.03174261      15.93895132      -0.03122993       0.09134287      -0.02506767
H       20.36329562      21.70921591      15.82910918       0.09489809      -0.08490450       0.00546086
H       20.57799226      21.62640691      13.34425380      -0.04285998      -0.09671933       0.02700448
H       19.48340827      20.33798096      13.91424942       0.20442273       0.10206136      -0.03936532
H       24.53470248      17.24583364      13.00295143       0.14435901      -0.02910194       0.01781564
H       25.71536714      16.04406915      13.52561452       0.02351257       0.06724092      -0.04008651
H       25.93512674      16.86437510      11.96929383      -0.01754279       0.03559172       0.01581099
H       25.89232197      14.01087945      12.42057180      -0.00165654      -0.03334623      -0.08614599
H       24.66199374      13.46666163      11.28478622       0.09724044      -0.02232528      -0.03055704
H       25.90797961      14.62875458      10.76097141      -0.02182068      -0.05355195       0.01898374
H       22.27285545      14.02504144      11.43837153      -0.00829488      -0.02211457       0.03232934
H       21.61888814      15.06034502      10.16862296       0.03984973      -0.01764785      -0.03375232
H       23.07151580      14.11347286       9.85463909       0.03963222      -0.08043523      -0.04650251
H       24.39231272      17.57986660      10.23915695       0.02452595      -0.02669812      -0.03420325
H       24.71425864      16.04535742       9.41230016      -0.00246674      -0.00714445      -0.03795573
H       23.15493816      16.85374906       9.21126782      -0.01197588       0.03038979      -0.01427274
H       23.30090799      19.26401521      12.74349480      -0.06251769       0.30521395       0.07379786
H       22.84486066      20.98245831      12.66558740       0.01782219      -0.19581504      -0.00922553
H       24.32904807      20.60711016      14.60032413      -0.02783125      -0.01450386       0.07273579
H       23.24595313      19.36196452      15.24050191       0.01798139       0.10986352      -0.08411395
H       21.95151054      24.45820759      17.77836861      -0.00077767       0.01329579      -0.03131846
H       22.92976200      24.48781017      16.29812985      -0.03765088       0.03769437      -0.06099295
H       21.39566897      23.60673853      16.34605508       0.10411515       0.06477699       0.02640816
H       20.59086750      19.17498408      20.60804242      -0.03052390      -0.07738621       0.04157332
H       18.98491243      19.93730428      20.63493971       0.24775834      -0.08573428       0.06204997
H       20.93548843      19.75543743      18.29852855      -0.24571416      -0.04281369       0.08484552
H       19.31126205      17.84677648      18.83420976      -0.00028340       0.06044607      -0.05344621
H       19.12771958      18.56361241      17.21178069      -0.00834731      -0.01118327       0.22156191
H       17.31237167      20.09491827      16.80549332      -0.05968594       0.04894801       0.15538946
H       16.20003814      20.49103040      18.14817111       0.08533961      -0.00308393      -0.05489557
H       17.95166765      21.66008143      19.35842012       0.00475114       0.01362212      -0.09537999
H       17.93384550      22.30493986      17.69435712      -0.04456097      -0.07307419       0.12383108
H       20.94959210      21.63880236      24.68313151      -0.22965755       0.04703554      -0.03644762
H       19.45371769      22.60525832      24.69695048       0.04085554      -0.05326147       0.01956745
H       19.15728816      20.69548978      26.22770348       0.01766107      -0.05231384       0.00673715
H       19.63881614      19.56215687      24.95624412       0.01466742       0.04054427       0.06145554
H       17.18514804      21.38750494      24.88689572      -0.05114459      -0.05134561      -0.02894673
H       17.16082799      19.62747132      25.09108471      -0.05449129       0.04249724      -0.00232782
H       15.05079698      15.83885181      16.67677206      -0.00670860      -0.03881261      -0.04461622
H       16.68627332      17.66728848      16.55470278       0.01073115       0.02135554       0.00364358
H       16.61314675      18.16377843      20.78819745       0.00849463       0.05646852      -0.03645379
