151
Properties=species:S:1:pos:R:3:MACE_forces:R:3 energy:=T -221.330558300786=T gnorm:=T 0.005583693346=T xtb:=T 6.7.1=T (edcfbbe)=T MACE_energy=-90873.32395901103 pbc="F F F"
C        9.31430739      15.62411472      21.25848572       0.15912183      -0.11213461      -0.32749205
N       10.64188613      13.25830956      21.99493443      -0.31095161       0.05870832      -0.05711373
O       10.10146592      14.31945462      19.31677529      -0.04158807       0.03299830       0.22625583
C       10.49810575      15.09088467      20.45282645      -0.02444250       0.15965204      -0.05746718
N       13.72415342      15.13391188      19.24568985      -0.19985406       0.12229748       0.02715394
O       15.73389475      19.06535237      22.91648357      -0.15766283      -0.70237003       0.25694034
C        9.30794382      15.00695263      18.37424046       0.11335201      -0.11872876       0.11298079
N       18.60350259      21.13841410      22.61741295      -0.28101448       0.23110698      -0.05090183
O       21.19809724      17.28120105      13.20086509       0.71815519       0.51285489      -0.08457780
C       11.33361829      14.15233026      21.29974461       0.30184249       0.14495674      -0.17598779
N       19.91821732      21.13688051      23.09155964      -0.65039698      -0.02932319       0.84799679
O       23.75873465      21.02742171      17.30971491      -0.34283377       0.11179554      -0.29385192
C       11.27751354      12.38332468      22.74987693       0.11050069      -0.16978945       0.13805498
N       21.68770977      21.65082624      19.97095511       0.05370864      -0.84256573       0.28630505
O       20.92727676      23.76737651      19.89329034       0.22566095      -0.12518604      -0.05241936
C       12.65888037      12.35032479      22.87098038      -0.01200606       0.07937801      -0.05329035
N       22.42602530      22.84351913      17.28198439      -0.03106079       0.29414283       0.24346155
O       19.59959948      20.90392402      18.06819264      -0.16141777      -0.01314481       0.06958922
C       13.38734983      13.28125375      22.15574337      -0.15872071      -0.08758199      -0.03214002
N       22.14111542      19.34435490      13.28819697      -0.00287153       0.40591000       0.06279240
O       22.11686431      21.14418635      22.60199250      -0.63893256      -0.10118413      -0.16234638
C       12.73167690      14.20613404      21.33954738      -0.11663955      -0.29479634       0.22599178
N       24.70327680      14.84125268      10.76700649       0.17732568      -0.00125906      -0.08642514
O       15.89212942      21.21700574      22.30737598       0.26416548      -0.46215812       0.24920556
C       13.56972270      15.16900290      20.61335191       0.15336444       0.30527935       0.34309897
N       17.66059581      18.99256152      18.72360897      -0.11792514      -0.13299581      -0.15658675
C       13.16549385      14.14417951      18.35904026      -0.01919640      -0.52224798      -0.16799584
C       14.06980417      12.91673480      18.25565448      -0.09076550       0.20381872      -0.03479921
C       14.40507034      16.11498592      21.16479172      -0.22287852      -0.31614712       0.09794958
C       14.51610736      16.46843394      22.61272462      -0.13331984       0.07433815      -0.07548396
C       13.72164322      17.72188409      23.05118444       0.23251623       0.15192850       0.07685638
C       13.72338450      17.79091706      24.58058109       0.05397514       0.01496773      -0.22648716
C       12.28376292      17.65380645      22.54115121       0.26676373       0.11545266      -0.01565103
C       14.36421407      18.99609932      22.49230464      -0.48712525       0.07241260      -0.20316387
C       16.37938760      20.20161371      22.75271368       0.26455088       1.08858286      -0.42031643
C       17.81656852      20.07969201      23.23105827      -0.19435825       0.00328609       0.19310075
C       20.94746536      21.14480742      22.23285040       1.05424410       0.20486420      -0.58437760
C       20.56292587      21.19156211      20.75053893      -0.01963961       0.26894225      -0.09610852
C       21.76351822      22.92565632      19.58012471      -0.14452648       0.51638246      -0.05849934
C       22.90618957      23.22799954      18.60998081       0.16975197       0.23889441       0.19404380
C       23.34306413      24.69917819      18.67882564       0.04958819      -0.18053591       0.04810951
C       24.35767985      25.02079840      17.58526192      -0.26449678      -0.08989273       0.09768776
C       23.94416840      24.96981812      20.05716508      -0.27463161      -0.03360658      -0.08637771
C       22.95554715      21.75462279      16.71892411       0.61576684      -0.63595546       0.00087895
C       22.55331363      21.35991441      15.29081121       0.23529272      -0.54559882       0.22304441
C       21.37193049      20.38752235      15.35136953      -0.07848610       0.21500640      -0.21160464
C       20.99540502      19.93281387      13.94353524      -0.37634082      -0.14541966       0.26273059
C       22.15218906      18.03654597      12.98453692      -1.30952623      -0.74930656       0.15121159
C       23.32405739      17.53864970      12.31674647       0.95048053      -0.59793222      -0.50937594
C       24.21882020      16.99824699      11.71595665      -0.83887192       0.51086621       0.57944048
C       25.18714156      16.22273248      10.94354438       0.40212926      -0.13201897      -0.30177242
C       23.42838584      14.75718203      10.07503518      -0.14268854       0.02116898       0.01627042
C       24.64467511      14.08295234      12.00424773      -0.03775246       0.02358714       0.12787574
C       25.37057563      16.89132238       9.56986749      -0.10350448      -0.02853514       0.04970112
C       26.54139801      16.22610647      11.66742708      -0.10676644      -0.04635667       0.05262584
C       23.27727829      20.22652192      13.17088558       0.35397941       0.21250927       0.09519890
C       23.72691513      20.70572946      14.55483874      -0.15758345       0.09490369      -0.01361600
C       21.31770506      23.61972676      16.76398704      -0.31946945       0.17947487      -0.22692315
C       20.03966062      19.83550164      20.27053770      -0.02864483       0.28508767      -0.36049671
C       19.96907815      19.70766317      18.73561605       0.18557079      -0.39285231       0.11590883
C       19.00166662      18.56791757      18.37234823       0.33869902       0.17958995      -0.09861456
C       17.28724159      20.14777135      17.92978713       0.17153799       0.37345732      -0.03055788
C       18.24776495      21.28090991      18.28081334      -0.22713020       0.00548714      -0.09372630
C       20.10820149      21.19977500      24.53310880       0.23398756      -0.17466787       0.02470552
C       19.32704305      20.07489818      25.20889311      -0.11061715       0.31062453      -0.04208153
C       17.86450082      20.13055109      24.76957753       0.19321288      -0.30486580      -0.13789834
C       15.13818590      16.68225944      20.08113616      -0.02586609      -0.24929436      -0.41952163
C       14.69046354      16.03521070      18.90066325       0.34093307       0.51134144       0.17964555
C       15.23051749      16.34985768      17.65784818      -0.04699251      -0.08593979      -0.22908154
C       16.21008684      17.31632221      17.60014977       0.10507750       0.02666107      -0.07440032
C       16.66955668      17.95937356      18.75936320       0.07259634       0.12969232       0.27389645
C       16.15041725      17.63747657      19.99505116      -0.01519867      -0.03155695      -0.16957724
F       22.19283597      22.48779481      14.54378382      -0.08664542       0.12892914      -0.12794699
H        9.68232186      16.11828052      22.15200674      -0.03385624       0.05805655       0.05450190
H        8.74205296      16.34006785      20.67641736      -0.02459934       0.06916684       0.00246030
H        8.68028281      14.79273443      21.54970741      -0.02621742       0.01667338       0.02507907
H       11.12028017      15.93236605      20.10154229      -0.11820000      -0.24456775       0.11767543
H        9.72473838      15.99430006      18.15974741      -0.03571758       0.04213292      -0.05433014
H        9.32474060      14.39954500      17.47209064      -0.06167114       0.10492053      -0.02347608
H        8.27695956      15.10958729      18.71776488       0.00753067       0.06858455      -0.03803061
H       10.64696888      11.68354050      23.28116073       0.06259776      -0.07825204       0.06920152
H       13.14407749      11.62090255      23.49828398       0.01414755      -0.03613938       0.04752823
H       14.46637099      13.29717750      22.20706662       0.01835055       0.02812283      -0.00479549
H       12.18108011      13.84886135      18.72763860       0.23259640       0.18303219      -0.17621562
H       13.04248153      14.60186140      17.37475284      -0.09953665      -0.02686095       0.16544579
H       14.15213949      12.42785151      19.22349878       0.00670603      -0.02245411       0.01742934
H       13.65282406      12.21118618      17.54386788       0.00685791      -0.11706016      -0.04897889
H       15.06507320      13.20560993      17.92548313       0.03956493      -0.03965549      -0.01567357
H       14.14933955      15.62774082      23.20388337       0.10153759       0.07514380       0.04831966
H       15.56595371      16.63162491      22.85956239      -0.04577014      -0.12979284       0.11279908
H       14.74225128      17.83078467      24.95585316       0.03816719      -0.01368491       0.08813098
H       13.19277810      18.67690731      24.92088000      -0.03190220       0.06475029       0.06941467
H       13.23249559      16.91599558      24.99784390      -0.03186761      -0.06497651       0.05549404
H       12.26253556      17.65775837      21.45486864      -0.05348154      -0.02500165      -0.04892116
H       11.81363272      16.73943413      22.89190891      -0.06450097      -0.05767146       0.01599339
H       11.71016685      18.50384186      22.90020185      -0.09635214       0.05380565       0.06155776
H       13.84234559      19.88945485      22.84843171       0.06499399      -0.18863861      -0.06615806
H       14.34362573      18.99820334      21.39865073       0.00039489       0.03645864       0.18800963
H       18.21652477      19.11751411      22.89458015      -0.05549891       0.13654767       0.03876495
H       18.15396700      22.03695843      22.79141380       0.12411204      -0.13507920      -0.06374264
H       19.79282186      21.96111253      20.63510254       0.23167533      -0.35515047      -0.01371512
H       22.43180986      21.00158847      19.76095651      -0.07041350       0.31088597      -0.04564371
H       23.76151463      22.58222286      18.83182821      -0.20643824       0.18544570      -0.06878098
H       22.45745027      25.32929562      18.56118575       0.09858620      -0.11139525       0.00600161
H       23.94183245      24.85394022      16.59557199       0.03643835       0.00851834      -0.08841612
H       24.66043705      26.06124671      17.65935333       0.07242105       0.06166949      -0.03181365
H       25.23934757      24.39337670      17.69565421       0.09597730      -0.02252335      -0.02982820
H       24.83699207      24.36753619      20.20970116       0.09287436      -0.01802635      -0.00039520
H       24.21273563      26.01846988      20.14629126       0.06191508       0.05735590       0.06465472
H       23.22773302      24.72961964      20.83913008       0.03583597       0.04787719       0.05895077
H       21.68718354      19.53013804      15.94963270      -0.03899879       0.07072567      -0.04566468
H       20.51591247      20.84545876      15.84776266       0.12858619      -0.05911474      -0.01367096
H       20.65626517      20.79267426      13.35718088       0.00629437      -0.13089069       0.04618271
H       20.20576113      19.18056559      13.97918995       0.15383995       0.20697364      -0.04630703
H       23.49814606      15.22772548       9.09969491      -0.05976194      -0.01772655      -0.02117118
H       23.19154765      13.70487450       9.92546922      -0.00939586       0.06347102      -0.02722447
H       22.60415990      15.22065735      10.63896166       0.09152765      -0.05043447      -0.08234654
H       23.99879210      14.55262971      12.76297781       0.07247328      -0.06400578      -0.07319746
H       24.24279972      13.09648333      11.78072795       0.03926390       0.03070391       0.04104138
H       25.64270843      13.95410837      12.41286588      -0.04511121      -0.02698627       0.06060431
H       25.89301199      16.20511627       8.91076804       0.06312244      -0.04675328      -0.04049886
H       24.41705474      17.16297927       9.12572847       0.04070757      -0.02700778      -0.01832779
H       25.95800404      17.79826068       9.68040672      -0.01648792       0.03787730      -0.00453613
H       26.43486394      15.96986939      12.71771289       0.03138909      -0.02148032      -0.02967089
H       27.20233861      15.51187727      11.18535538       0.05424303      -0.03906205      -0.03627259
H       26.98390125      17.21655810      11.60771826      -0.00636822       0.01422283       0.02165048
H       24.09061605      19.70128445      12.67063798      -0.16016855       0.14675992       0.04321335
H       22.98268742      21.09307732      12.56965563       0.10891170      -0.14280869      -0.00260435
H       24.53410575      21.43019933      14.44745400      -0.02041014      -0.02711615       0.07080952
H       24.08639357      19.87392771      15.15929184      -0.02174853       0.08196103      -0.08653726
H       20.64380414      22.99715921      16.18527890       0.05826330       0.09307398       0.05634405
H       20.76070551      24.02049106      17.60761940       0.05534256      -0.01722788      -0.06270554
H       21.66806777      24.44210429      16.14116426      -0.07358319      -0.03142908       0.00639772
H       20.68733069      19.03965535      20.63951450      -0.03342934      -0.07142237       0.02012123
H       19.03747679      19.69825897      20.67236215       0.18402244      -0.03449527       0.06109862
H       20.96541093      19.48830319      18.33675573      -0.20395648      -0.02216654       0.09706050
H       19.25330330      17.67263651      18.94151488       0.02279096       0.04690156      -0.06935776
H       19.10036384      18.34120500      17.29472413      -0.01751495      -0.00836214       0.17677899
H       17.34054375      19.94411240      16.84460295      -0.04533673       0.02947911       0.16321370
H       16.26872578      20.44080052      18.18646037       0.06868011      -0.00157036      -0.05901063
H       18.08958177      21.57471576      19.32409838      -0.01058592       0.00058832      -0.11369031
H       18.08715937      22.14586904      17.63542870      -0.05212461      -0.06861772       0.14368007
H       21.17927050      21.11694978      24.71768910      -0.21277503       0.06746555      -0.00955880
H       19.75626863      22.17435575      24.88963621       0.04534242      -0.06715794      -0.00005342
H       19.40262231      20.18337604      26.28947550       0.03191015      -0.06807724       0.01258389
H       19.75798737      19.11425166      24.92474813       0.04031883       0.00570920       0.04946209
H       17.40417384      21.05960982      25.11386797      -0.03875312      -0.03950805      -0.03543055
H       17.30503177      19.29153232      25.18061892      -0.04021570       0.06183084       0.01924673
H       14.90269228      15.85336483      16.75720641      -0.02456202      -0.02303119      -0.02580499
H       16.64309257      17.57781923      16.64521100      -0.00339148       0.01324722      -0.01703681
H       16.54291750      18.12429374      20.87189864      -0.00611785       0.04785425      -0.00096116
