151
Properties=species:S:1:pos:R:3:MACE_forces:R:3 energy:=T -221.331335145154=T gnorm:=T 0.007256495814=T xtb:=T 6.7.1=T (edcfbbe)=T MACE_energy=-90873.2986191761 pbc="F F F"
C       10.09221640      15.33484091      20.01002449       0.22892184      -0.15225469      -0.30166978
N       11.30340294      13.06752217      21.18574543      -0.30241543       0.01703285      -0.12507193
O       11.28908821      13.96666425      18.35535748      -0.07145738      -0.00722660       0.19393306
C       11.43188874      14.79561152      19.50897191      -0.07653925       0.20653505      -0.02353068
N       14.68713020      14.91072433      18.89926187      -0.29919048       0.10672779      -0.00947479
O       15.92012582      19.24239933      22.40738392      -0.06156247      -0.80930373       0.13386714
C       11.02466735      14.66647846      17.15984140       0.03235044      -0.00107190       0.12762205
N       18.52017847      21.58268971      22.59011933      -0.27732332       0.31761974      -0.10997995
O       19.13365222      18.63727394      13.84108159       0.72814011       0.04490940      -0.09473689
C       12.09059325      13.94047741      20.57414943       0.35255430       0.17159997      -0.17887398
N       19.79478591      21.70041844      23.15735871      -0.69843147      -0.02071550       0.74596277
O       23.11511956      20.84769858      17.25135403      -0.22692774       0.29358063      -0.31938550
C       11.80244047      12.29730580      22.13516326       0.07968744      -0.13473460       0.21520053
N       21.90721510      22.05331719      20.20946308      -0.00408417      -0.67583536       0.44526230
O       21.20508665      24.04965753      19.43300515       0.20380632      -0.14527331      -0.01709490
C       13.12246902      12.36790126      22.55387249      -0.02437148       0.02748098      -0.06366273
N       22.81062182      23.07408410      17.17492428       0.12601794       0.32131533       0.27367010
O       19.95274145      21.29785459      18.13824424      -0.10739605      -0.04844306       0.11833812
C       13.95361533      13.26799012      21.91473707      -0.10700880      -0.03429160      -0.08512290
N       20.92925949      19.93282833      13.33451334       0.08664140       0.27728874      -0.20564981
O       22.02508513      21.80162724      22.87302023      -0.58968790      -0.15805001      -0.17464754
C       13.44974511      14.07109632      20.89127516      -0.16380954      -0.29400699       0.22386480
N       22.08345117      14.65033174      11.64882803      -0.03756067       0.01952022      -0.01855155
O       15.73733304      21.47974839      22.44346247       0.38990830      -0.43184320       0.07031547
C       14.35253343      15.02016905      20.23257028       0.11082827       0.33497267       0.37409475
N       18.16122723      19.19951661      18.56905668      -0.15110929      -0.20192616      -0.18926165
C       14.44570845      13.75014042      18.07815002       0.09696525      -0.52631791      -0.09266854
C       15.54441752      12.70640849      18.27622425      -0.12242864       0.18599710      -0.09659159
C       15.00432111      16.08829284      20.80571413      -0.15242356      -0.37375383       0.06047958
C       14.90637292      16.55046013      22.22383406      -0.15628746       0.08804233      -0.11412373
C       13.98012863      17.76511606      22.47103747       0.21375864       0.17762637       0.08463054
C       13.78577995      17.92891895      23.98111112       0.07844564       0.07008608      -0.14145542
C       12.62530148      17.55163849      21.79604471       0.27870066       0.17676814       0.03323908
C       14.59224571      19.05453525      21.90222454      -0.65538873       0.01909766      -0.21650457
C       16.37297132      20.46133564      22.60622761       0.13338799       1.19728117      -0.07927301
C       17.80180185      20.43004031      23.12583018      -0.16913592      -0.05235764       0.22553918
C       20.89810362      21.73251615      22.39272116       1.01578853       0.24134044      -0.47636435
C       20.67567579      21.70351393      20.87969864       0.04067173       0.17199250      -0.09945845
C       22.03437706      23.14667461      19.45272734      -0.06931643       0.41581764      -0.17835566
C       23.28173850      23.15999367      18.56028172       0.07430969       0.01784547       0.26198085
C       24.18779868      24.36903679      18.82815544      -0.00388041      -0.18972787       0.03861716
C       25.44107489      24.28907887      17.95974143      -0.29180675       0.07550793       0.02605248
C       24.56433820      24.38217698      20.30919702      -0.26415464       0.09620132      -0.11556306
C       22.77515645      21.85671059      16.62647068       0.35078399      -0.86181624      -0.02690546
C       22.30568831      21.67221085      15.17105897      -0.17007965      -0.45227242       0.17438459
C       20.77849480      21.55730314      15.13939026       0.10148744      -0.03999629      -0.21127049
C       20.27235945      21.14873444      13.75473180      -0.39478199       0.19363958       0.28081382
C       20.31450211      18.74464233      13.50149660      -1.19288010       0.12600877       0.18962308
C       21.11538009      17.57884976      13.22653900       0.24211811      -1.08186664      -0.07947660
C       21.64764456      16.51151025      13.05754073      -0.20054692       0.92521651       0.07058156
C       22.38621139      15.25355488      12.95192339       0.04112112      -0.17926030       0.21574577
C       22.57673479      13.30150696      11.46363063      -0.02355430       0.02445213       0.06254738
C       22.43661110      15.48571101      10.51857438      -0.00254899       0.00223735      -0.08999245
C       23.88105054      15.55973215      13.18600089      -0.14371032      -0.05591389      -0.09608869
C       21.85577199      14.36661014      14.09091234       0.05879320      -0.01668432      -0.04940915
C       22.35940146      20.08533096      13.20728717       0.44449482      -0.02562056       0.18107200
C       22.96523061      20.42533780      14.57184138      -0.09426669       0.09330105      -0.03866840
C       22.25849025      24.29124404      16.61724868      -0.22155571       0.34249804      -0.15364807
C       20.19695684      20.32536782      20.39961386      -0.07875084       0.26357329      -0.42125332
C       20.35459419      20.15165326      18.87687981       0.26792761      -0.45514575       0.14861329
C       19.57171658      18.91332460      18.41945912       0.35858888       0.24134661      -0.08752404
C       17.78374464      20.28791630      17.68885380       0.18664715       0.38580166      -0.00526821
C       18.55247061      21.52396858      18.15608608      -0.18494498      -0.05883906      -0.15209515
C       19.86410516      21.75403585      24.60995888       0.26044222      -0.16370762       0.05707805
C       19.19320985      20.51479277      25.19776197      -0.14105498       0.26881647      -0.03558965
C       17.76438132      20.41725542      24.66704128       0.22503072      -0.22519487      -0.15271939
C       15.80235187      16.66457457      19.77411528       0.08672839      -0.24560839      -0.41525894
C       15.58083800      15.90163379      18.60056411       0.24740607       0.54906794       0.16971953
C       16.21054370      16.22189986      17.40118499      -0.00572773      -0.11115649      -0.17726174
C       17.05612059      17.30980721      17.37847635       0.13242050       0.06752360      -0.11921791
C       17.29964872      18.05855556      18.53929342       0.02720351       0.19604540       0.31476042
C       16.69682909      17.73131272      19.73378420      -0.03199220      -0.09260181      -0.16302834
F       22.70758695      22.76065799      14.38264463       0.02497038       0.13555562      -0.15346100
H       10.25340086      15.93618091      20.89874275      -0.04878277       0.06527955       0.06589896
H        9.62161496      15.95444763      19.25208832      -0.01972992       0.06458278       0.00039524
H        9.44417024      14.49917815      20.25440334      -0.02933466       0.02937581       0.02311537
H       12.10036803      15.63378095      19.25541823      -0.13137934      -0.21696349       0.08162068
H       11.78749588      15.43569635      16.98138910      -0.08302060      -0.06832955      -0.03200630
H       11.05873371      13.92126804      16.36666453      -0.02111457       0.15583119      -0.02245624
H       10.03609851      15.13690838      17.17144718       0.10048348      -0.03075592      -0.04397074
H       11.10679362      11.60237347      22.58545090       0.03831878      -0.05612531       0.07762338
H       13.48506517      11.73490419      23.34684357       0.01663220      -0.04421110       0.03829333
H       14.99528288      13.35281296      22.18876701       0.01813723       0.01985418      -0.00389511
H       13.47382827      13.32485496      18.33759969       0.21741576       0.20838263      -0.15340807
H       14.41489634      14.06875594      17.03415070      -0.12410909      -0.02384013       0.14202312
H       15.56458843      12.37709719      19.31239907       0.00244837      -0.02630432       0.02294159
H       15.35931024      11.84654797      17.64047272       0.03345142      -0.12064229      -0.04098786
H       16.51525035      13.12960364      18.02707715       0.04012666      -0.04559502       0.00223928
H       14.52881333      15.72813511      22.83244549       0.08471460       0.06908384       0.05446451
H       15.90462996      16.81175339      22.57677114      -0.04166896      -0.12409569       0.12557992
H       14.74712123      18.08589440      24.47374661      -0.10651907      -0.02554249       0.02612893
H       13.14100108      18.78492867      24.18820031       0.05197086      -0.04391924       0.05156849
H       13.31970170      17.03832526      24.40025642       0.01331603       0.01173943       0.03378572
H       12.73733041      17.51916721      20.71568567      -0.03996816      -0.05233385      -0.05975060
H       12.19368842      16.61159817      22.12705419      -0.06917870      -0.06657687       0.01817189
H       11.94248925      18.35990153      22.04472444      -0.09756381       0.03498852       0.04223344
H       13.98650712      19.92560735      22.17114873       0.10822183      -0.22402029      -0.07064706
H       14.65834811      18.99485332      20.81227149       0.00991065       0.06222592       0.17654902
H       18.29621410      19.52180456      22.76608941      -0.08821328       0.17610556       0.06470778
H       17.97375587      22.42744357      22.76706228       0.16990097      -0.20830489      -0.03865020
H       19.95033771      22.47751129      20.61367693       0.17746158      -0.27369458       0.04261084
H       22.64319195      21.36449975      20.23424856      -0.07788861       0.27423371      -0.17270960
H       23.85750784      22.24659704      18.73954924      -0.10882920       0.27806207      -0.02573260
H       23.63862155      25.28722959      18.60791985       0.01884801      -0.11889369       0.00857548
H       26.07207571      25.15587583      18.13343273       0.08348273       0.04192965      -0.02056710
H       26.00843386      23.39466523      18.20627738       0.06575456      -0.06368619       0.00093120
H       25.18883525      24.25023516      16.90350174       0.04642838      -0.00378823      -0.08253077
H       25.08167329      23.46545142      20.58480449       0.06746153      -0.04145888       0.01620562
H       25.21366474      25.22675711      20.51900002       0.08262355       0.03339029       0.07072873
H       23.67560745      24.47050982      20.93168903       0.06799784       0.00856448       0.05562587
H       20.49537558      20.80709146      15.87881392       0.00024441       0.11374972      -0.10813761
H       20.31885774      22.49863484      15.43652097       0.04665976      -0.08071283       0.08521684
H       20.48954448      21.93429160      13.02547587      -0.05996366      -0.11918693       0.05798068
H       19.19649081      20.96632327      13.78832959       0.25568259       0.07954468      -0.06263969
H       22.21504440      12.94552636      10.50005515       0.04444205      -0.04938970       0.04620329
H       23.67517995      13.23268531      11.45928608      -0.05309021      -0.01991445      -0.00107407
H       22.18055115      12.64706744      12.23480275       0.06194259      -0.06359030      -0.03801338
H       21.91879878      15.10494899       9.63790877       0.06974143       0.07511085      -0.00144438
H       22.10374949      16.50614262      10.70068498       0.04816327      -0.04792572      -0.10234884
H       23.51623908      15.49205264      10.30350934      -0.07784775       0.03592305       0.02331669
H       24.00985750      16.02527393      14.15931690       0.04413617       0.00830081       0.02078426
H       24.45752869      14.63898162      13.16056506       0.05352357      -0.04283871      -0.00265227
H       24.25988813      16.23909421      12.42635102       0.02686160       0.00013622       0.01687661
H       21.81606958      14.94647970      15.01005883       0.03995790      -0.05867970      -0.00477617
H       20.85194155      14.02564661      13.85265955      -0.00178307      -0.01819020       0.00947542
H       22.50546112      13.51129355      14.25187416       0.01078455      -0.06355077       0.00636976
H       22.79337256      19.16251925      12.82080367      -0.06939309       0.23013534       0.01522290
H       22.55320113      20.90145746      12.50605958       0.01269827      -0.17572741      -0.00224601
H       24.03573215      20.60615927      14.47207676      -0.04345702      -0.01396486       0.09441627
H       22.81789308      19.59999736      15.26934315       0.04212442       0.09759520      -0.13249103
H       21.70068981      24.79813887      17.40426632       0.10001753      -0.04520257      -0.12060092
H       23.05432041      24.93876510      16.25131833      -0.06588362       0.01938712      -0.04793159
H       21.57852012      24.08420113      15.80078449       0.13125599       0.03598207       0.06668208
H       20.78381445      19.54275368      20.88503260      -0.05812571      -0.02600970       0.01533889
H       19.14629207      20.20167084      20.65770320       0.21560268      -0.04888651       0.08742002
H       21.41106563      20.03471087      18.61088829      -0.27807617      -0.03120153       0.12498962
H       19.83173051      18.05837525      19.04464589       0.02467771       0.05845805      -0.07060748
H       19.84101241      18.67797659      17.37228659      -0.03372803       0.00172993       0.19879874
H       18.02735422      20.07681526      16.63182456      -0.08554513       0.02885585       0.13921985
H       16.71126336      20.46383890      17.77638303       0.06833829       0.00651048      -0.03916604
H       18.22212209      21.79206737      19.16636655      -0.00510520       0.01147537      -0.12117356
H       18.38950760      22.37074150      17.48881303      -0.05618655      -0.05496711       0.10395640
H       20.91820608      21.81190528      24.88128674      -0.22670281       0.03689310      -0.03433662
H       19.35159693      22.66081634      24.94933548       0.06001206      -0.06252798      -0.00421562
H       19.19018328      20.57958033      26.28506520       0.04043837      -0.04888764      -0.01004259
H       19.75726101      19.62833718      24.90337992       0.02969893       0.02170536       0.06352793
H       17.17478702      21.26846160      25.01678386      -0.00777647      -0.05958919      -0.05124575
H       17.28774527      19.50005113      25.01076095      -0.06268347       0.03771196       0.01389434
H       16.04712329      15.64395913      16.50482462      -0.02410608      -0.03829365      -0.03813754
H       17.54564445      17.58741139      16.45442741       0.00088460       0.00130000      -0.00176809
H       16.93102143      18.30289274      20.61491656      -0.00319617       0.04973175      -0.03174699
