151
Properties=species:S:1:pos:R:3:MACE_forces:R:3 energy:=T -221.331658358612=T gnorm:=T 0.007087951795=T xtb:=T 6.7.1=T (edcfbbe)=T MACE_energy=-90873.41751402506 pbc="F F F"
C        9.89217471      16.21003783      20.73310889       0.14412474      -0.11897542      -0.33031867
N       10.71883104      13.56986719      21.32816241      -0.30637100       0.10761892      -0.04768162
O       10.50584458      14.93452689      18.73230646      -0.06323323      -0.04981133       0.16967137
C       10.99981044      15.51612813      19.93913237      -0.01063707       0.19593252       0.02039653
N       14.14112955      15.10674078      18.86952463      -0.22079138       0.10314232       0.01270655
O       16.34281167      18.74434028      22.68615196      -0.13462602      -0.80654850       0.14635560
C       10.24924546      15.85681139      17.69660253       0.12835026      -0.03685576       0.11848333
N       19.03052185      21.01694694      22.51805589      -0.38024218       0.25128187      -0.04740336
O       19.34862102      17.80359576      14.15783881       0.68514897       0.17584557      -0.27146514
C       11.59314666      14.37639009      20.74564604       0.37708944       0.14835214      -0.21062468
N       20.35975526      21.13416415      22.92784488      -0.51365731      -0.16979977       0.80556890
O       23.05661836      20.91225948      16.78910634      -0.33667618       0.28468984      -0.27733731
C       11.15360181      12.54846917      22.04414187       0.05269575      -0.17586190       0.11377621
N       21.96094568      21.85781176      19.74034898       0.20456690      -0.72577386       0.38137693
O       20.95160028      23.81699237      19.25218259       0.24166900      -0.10653376      -0.05951395
C       12.49876477      12.27472413      22.23446698       0.01835335       0.04778469      -0.01644228
N       22.35702485      23.04876671      16.73443012       0.15961490       0.30491922       0.19912508
O       19.72046017      21.15217027      17.99992362      -0.07627910      -0.08829467       0.10354812
C       13.42000469      13.11283677      21.63377707      -0.15941089      -0.00162420      -0.06791767
N       20.67796665      19.40667544      13.25293572      -0.04015752       0.28093551      -0.23901697
O       22.51886001      21.39346882      22.34699986      -0.43857521      -0.17708385      -0.10425404
C       12.97794641      14.18653221      20.86178604      -0.19588877      -0.29141963       0.20064596
N       24.41967016      15.56487638      13.13197278       0.04689293      -0.07586283      -0.07112577
O       16.29754590      20.98531362      22.60383720       0.33345411      -0.48612864       0.06579301
C       13.97494080      15.06164689      20.23594121       0.16709024       0.21795762       0.37952618
N       18.05572747      18.98309430      18.60529656      -0.27385186      -0.08359758      -0.13838812
C       13.52251523      14.23135790      17.90514094      -0.04909021      -0.46353512      -0.17885818
C       14.35825558      12.97370950      17.67742966      -0.08843357       0.18828275      -0.02537609
C       14.87466862      15.90055908      20.85604147      -0.24244954      -0.32490543       0.06590091
C       15.05286169      16.11460565      22.32650865      -0.13089825       0.11751496      -0.05878547
C       14.35246414      17.35677546      22.92318823       0.23087275       0.15223570       0.05903302
C       14.53080002      17.34471138      24.44345848       0.05014699       0.02987370      -0.22050406
C       12.86286399      17.33679567      22.58459702       0.26934674       0.10881346      -0.02348808
C       14.94567909      18.65369022      22.36149154      -0.56594881       0.11030545      -0.10152319
C       16.88975736      19.93839548      22.75638311       0.18226370       1.21916211      -0.18055957
C       18.36736214      19.85745927      23.10251839      -0.09008915      -0.01515587       0.17672533
C       21.34288845      21.28409603      22.02430706       0.79040662       0.34931328      -0.61389274
C       20.89079378      21.34909761      20.56494972      -0.06511970       0.19027035      -0.09074084
C       21.86686580      23.01757651      19.08400368      -0.14427690       0.47440500      -0.11397890
C       22.97363341      23.25353402      18.05054039       0.05591141       0.04639039       0.25628659
C       23.64621367      24.62293079      18.21171794       0.01635667      -0.20440500       0.05070832
C       24.81029121      24.75552963      17.23374397      -0.25945828      -0.03010560       0.08019464
C       24.14853875      24.76264064      19.64863410      -0.27785344       0.05192814      -0.07756638
C       22.47483907      21.83071750      16.20122207       0.51757579      -0.83655211      -0.05896756
C       21.87327381      21.51232027      14.81736902      -0.04691624      -0.47425538       0.22909966
C       20.42318486      21.05863816      15.01147717       0.05996004       0.01718167      -0.26135099
C       19.83149791      20.47866212      13.72639643      -0.33751303       0.07046675       0.37022834
C       20.39649208      18.13111881      13.59482473      -1.19244080       0.00473664       0.40909155
C       21.38042297      17.15266843      13.21595849       0.43734425      -1.10766577      -0.13407944
C       22.08866456      16.21238453      12.95376459      -0.36208294       1.01081365       0.20027982
C       23.07883498      15.17142130      12.66971263       0.09342068      -0.51349880      -0.15594154
C       24.49735375      15.80383615      14.56149147      -0.02052410       0.01697410       0.10882348
C       25.00000478      16.67856827      12.40424260      -0.01831078       0.00626816      -0.01711606
C       22.64437862      13.87869866      13.38129687       0.00335691       0.09703467       0.07267734
C       23.09225011      14.90720219      11.15554513       0.00997701       0.08633628       0.05934271
C       21.99906050      19.86670393      12.89639949       0.46934853       0.08367560       0.06305800
C       22.70800471      20.42275224      14.13410241      -0.05929713       0.04828554      -0.00167827
C       21.51302171      24.11978815      16.24818192      -0.28719015       0.31117669      -0.12995523
C       20.42104981      19.97779950      20.05769210      -0.13494976       0.35108974      -0.36422184
C       20.26236197      19.94814532      18.52639759       0.27597488      -0.45791673      -0.00008675
C       19.39621405      18.74513248      18.11640150       0.38471835       0.24188248      -0.16116195
C       17.49732752      20.16450711      17.96854312       0.16442757       0.37843702      -0.01135411
C       18.36325597      21.35984168      18.35219374      -0.23368586      -0.00411315      -0.09387012
C       20.62466026      21.10984418      24.35861125       0.21772262      -0.13652030      -0.00145013
C       20.01687250      19.84971775      24.96991232      -0.15738320       0.30988274      -0.00965153
C       18.52768750      19.79710228      24.63366389       0.20562651      -0.23377325      -0.18131868
C       15.63967490      16.50001358      19.81252274       0.01156760      -0.16105014      -0.46785219
C       15.16354376      15.96666810      18.58931474       0.37517795       0.45300874       0.20594956
C       15.71517636      16.34329382      17.36870896      -0.05998317      -0.06344707      -0.19170199
C       16.70062493      17.30483132      17.37114828       0.11269343       0.04863893      -0.12233284
C       17.14967020      17.87529336      18.57188822       0.12199838       0.08824841       0.30188169
C       16.65916496      17.45046819      19.78686065      -0.03813044      -0.06785138      -0.15745924
F       21.90425381      22.63501521      13.97858109      -0.02936992       0.11437626      -0.13503957
H        9.08172713      15.50457444      20.88960268       0.00592772       0.02334734       0.04639941
H       10.27736220      16.53073511      21.69545705      -0.02770490       0.06103177       0.06743375
H        9.52017112      17.08000637      20.19905485      -0.00474624       0.05499053       0.01738138
H       11.79485410      16.23589985      19.68634175      -0.16495968      -0.20633576       0.08014722
H        9.76192714      15.29115114      16.90613312       0.03465611       0.11621745      -0.04339726
H        9.58850268      16.66243442      18.02321306      -0.00528098      -0.01520862      -0.06648688
H       11.18416772      16.29115052      17.31947422      -0.09707875      -0.00053874       0.02109081
H       10.38242069      11.93104585      22.48343746       0.04995422      -0.10244090       0.07445021
H       12.81378552      11.43275941      22.82831699       0.00268365      -0.04933047       0.04581700
H       14.48106513      12.94102561      21.74155985       0.02735186       0.01349119       0.00315848
H       12.52493763      13.95915797      18.25583884       0.21895655       0.18495829      -0.13839874
H       13.42055150      14.78262799      16.96775975      -0.11957624      -0.03884936       0.14554867
H       14.43094887      12.39661763      18.59650627       0.00572524      -0.01871170       0.01209787
H       13.89345286      12.35721318      16.91344233       0.01057107      -0.10292682      -0.04391140
H       15.36139170      13.24145221      17.35300461       0.03691870      -0.05130147      -0.01056745
H       14.66500110      15.24171698      22.85378109       0.11284922       0.04642006       0.07025047
H       16.12091133      16.19780488      22.53520648      -0.04474112      -0.12566610       0.09808514
H       15.58517956      17.31326679      24.70667160       0.02639377      -0.01196264       0.05039706
H       14.09186481      18.23918371      24.87975999      -0.02883061       0.04324448       0.08480372
H       14.04030415      16.47665410      24.87368264      -0.03861761      -0.08640304       0.06393375
H       12.34537209      18.15531748      23.07871095      -0.06741216       0.04452137       0.04380753
H       12.71525377      17.43201229      21.51250390      -0.06589594      -0.02229049      -0.05868135
H       12.42396498      16.39763961      22.91252257      -0.05883305      -0.03652943      -0.00045033
H       14.43722549      19.52811015      22.77883019       0.06921666      -0.21836091      -0.08804817
H       14.85213784      18.68311557      21.27216812       0.01136708       0.04227535       0.18808582
H       18.79627513      18.95336390      22.65774139      -0.08127694       0.15023527       0.07141983
H       18.49839624      21.85656077      22.74221745       0.13527638      -0.12037166       0.01154644
H       20.08244509      22.08347062      20.49074071       0.23425500      -0.31707140      -0.01812645
H       22.75110038      21.25043502      19.58101201      -0.15673252       0.27504814      -0.10741572
H       23.73408104      22.47411304      18.15315670      -0.14675275       0.23828575      -0.00573255
H       22.91081011      25.40889397      18.03000060       0.03784601      -0.10614749       0.00892406
H       24.50047523      24.55227763      16.21307247       0.00573686       0.00712350      -0.11867655
H       25.22584528      25.75694983      17.27816137       0.08180195       0.08891438      -0.02829148
H       25.59314535      24.04824041      17.49920079       0.07638208      -0.04610548      -0.03457886
H       24.83872380      23.95916295      19.89484510       0.09033063      -0.04786202       0.00958490
H       24.66340214      25.71164792      19.76865794       0.06279200       0.04007628       0.06629086
H       23.32077516      24.72756255      20.35501625       0.06587896       0.03574947       0.01381332
H       20.43063558      20.28742447      15.78162881      -0.05958466       0.11835425      -0.07189671
H       19.80787731      21.87983877      15.37495350       0.08983163      -0.07018909       0.07204617
H       19.77208428      21.24456582      12.94909822      -0.02559634      -0.10573501       0.06896194
H       18.83698125      20.07484889      13.92370426       0.20753155       0.12285954      -0.10629486
H       24.22461543      14.90592417      15.10821884       0.00342063       0.05774662       0.04516542
H       25.52828726      16.04830105      14.81091683      -0.05102908      -0.02256316       0.03158505
H       23.85447169      16.63263428      14.89682759       0.04931814      -0.08292663      -0.04182226
H       24.40300530      17.59981574      12.48139308       0.04541040      -0.05075197      -0.02736012
H       25.98631900      16.87718822      12.81936871      -0.03780285       0.02730613      -0.04882659
H       25.12447790      16.41842275      11.35751127       0.00358242       0.09525919       0.00034359
H       23.46423115      13.16657382      13.35567168       0.04002472      -0.03446233      -0.02269429
H       22.36035505      14.06774100      14.41337888       0.03886734      -0.04602277      -0.03621428
H       21.78392769      13.45292019      12.87306652      -0.02574509       0.00386891       0.02146669
H       23.91524158      14.23830712      10.92072708       0.04835779      -0.04360580      -0.02523922
H       22.15631798      14.43913021      10.86103734       0.01669785       0.02443164       0.00354124
H       23.19627687      15.82752011      10.58729840       0.02655494      -0.04386151       0.00117702
H       22.57224092      19.04044352      12.47455268      -0.11914308       0.20655343       0.00918900
H       21.89379507      20.65370220      12.14459821       0.04557853      -0.16307067       0.01845828
H       23.67476557      20.84379443      13.85273686      -0.04716084      -0.02526686       0.10504024
H       22.87810419      19.62890582      14.86323899      -0.01073829       0.10270850      -0.16128130
H       22.10888620      24.88030273      15.74222370      -0.09752739      -0.02004282      -0.00319932
H       20.76266054      23.75024360      15.55992865       0.12023568       0.07100752       0.05253321
H       21.00108962      24.55818673      17.10452684       0.07707353      -0.02449230      -0.12734299
H       21.14720232      19.21377159      20.33537181      -0.01333735      -0.06831727       0.03768039
H       19.45944849      19.74617162      20.50951233       0.19423314      -0.04261438       0.05254986
H       21.24796583      19.87592988      18.05110404      -0.25629475      -0.04653884       0.15058738
H       19.78737160      17.83415661      18.56940495       0.00934296       0.04168954      -0.03638546
H       19.42721350      18.62662458      17.01763418       0.01235881      -0.02526446       0.20155619
H       17.46600248      20.06441960      16.86788706      -0.02628830       0.01636568       0.18013719
H       16.48129080      20.31537039      18.33873321       0.09371907       0.01397378      -0.08732947
H       18.26466866      21.53992433      19.42879110       0.00051136       0.01730921      -0.10939818
H       18.06029788      22.25778683      17.81139340      -0.03449705      -0.08912036       0.13898772
H       21.70615949      21.14442412      24.48501413      -0.20737638       0.03145437       0.00118170
H       20.17985566      22.00210030      24.81325427       0.05841818      -0.06064883      -0.01296859
H       20.16301304      19.86238492      26.04849623       0.03519623      -0.05751260       0.00689578
H       20.51707379      18.97204424      24.55996391       0.05691255      -0.00635245       0.05208208
H       18.01395097      20.65124224      25.08030895      -0.03575158      -0.04414571      -0.03052479
H       18.07667079      18.88209496      25.01323891      -0.06049030       0.02027476       0.02590984
H       15.37829685      15.91026323      16.43969254      -0.02555521      -0.02542821      -0.04495153
H       17.13694807      17.62246253      16.43410277       0.00330140       0.02202667      -0.00254573
H       17.05724722      17.87507538      20.69223978      -0.01044541       0.05768137      -0.01540638
