151
Properties=species:S:1:pos:R:3:MACE_forces:R:3 energy:=T -221.329940807470=T gnorm:=T 0.005790568082=T xtb:=T 6.7.1=T (edcfbbe)=T MACE_energy=-90873.34670347426 pbc="F F F"
C        9.68704399      15.51134782      20.51590858       0.22318957      -0.16945107      -0.29396778
N       10.84562831      13.15712886      21.50050768      -0.28934476       0.08553334      -0.08737424
O       10.72174564      14.20549877      18.70906130      -0.04344943      -0.06081961       0.22780341
C       10.96954461      14.95115008      19.89954250      -0.04243530       0.23289957      -0.00108363
N       14.26027788      14.78283011      19.07203055      -0.31856029       0.06248350       0.13644826
O       15.73105839      19.16654748      22.45194639      -0.10915378      -0.56009065       0.29908147
C       10.35541381      14.98968165      17.59577609       0.06683716      -0.02314714       0.11603698
N       18.46577450      21.42359605      22.08333389      -0.26489345       0.27695730      -0.04476974
O       19.64880434      19.30495322      12.98133265       0.84056690      -0.00694692       0.04310566
C       11.64713089      14.00568516      20.87265829       0.34339151       0.14093746      -0.15962600
N       19.70227366      21.60919576      22.71128755      -0.74497999       0.11992773       0.67013861
O       23.41839633      20.70696252      17.46597828      -0.11128328       0.22023014      -0.31752332
C       11.35231331      12.31488670      22.38205393       0.05180023      -0.15519965       0.13858397
N       22.02787021      21.59982322      19.91910951      -0.31704232      -0.73425236       0.05958820
O       21.79068836      23.84155924      19.94196917       0.20739966      -0.28575835       0.01993477
C       12.69817624      12.28372079      22.71270830       0.01994570       0.03592511      -0.04514867
N       23.38892519      22.95647195      17.50087536       0.23830714       0.15639310       0.16320133
O       19.62645074      21.01521475      17.90901974      -0.05560761      -0.05051344      -0.00231697
C       13.54404158      13.15815927      22.05643458      -0.16577171      -0.01819352      -0.05508641
N       21.63746732      20.37734194      13.19087166       0.22986091       0.40380591       0.07514411
O       21.94680887      21.60972055      22.57747824      -0.60651688      -0.18015301      -0.12403501
C       13.02977388      14.03448960      21.10013536      -0.15012442      -0.22732415       0.19060533
N       22.71594236      14.93450709      12.69900237      -0.02405802      -0.01923604       0.02060114
O       15.76116716      21.21737809      21.54395168       0.24604482      -0.36820678       0.24267772
C       13.96133100      14.93460803      20.40871753       0.10116644       0.28518204       0.29101824
N       17.94995068      18.87194108      18.57622395      -0.24464126      -0.23346158      -0.14210009
C       13.82957525      13.68793912      18.23831865       0.00219799      -0.56527040      -0.12266738
C       14.74391467      12.47378227      18.39416319      -0.10413735       0.20460882      -0.06634346
C       14.70405307      15.95834867      20.95223870      -0.18139969      -0.25407455       0.06126594
C       14.70596951      16.42834580      22.37172768      -0.13181111       0.04118752      -0.05435767
C       13.83587388      17.67010016      22.67563701       0.19429008       0.20031424       0.06775600
C       13.82358421      17.89563730      24.18968455       0.08250967      -0.00776763      -0.16330959
C       12.40944899      17.45824237      22.17324450       0.27644364       0.11833043      -0.00738607
C       14.39714831      18.92097315      21.98783680      -0.58718268       0.00179936      -0.20308002
C       16.29399275      20.32350105      22.16278664       0.24383936       0.89322532      -0.50836634
C       17.68373423      20.40239747      22.77068060      -0.23945327      -0.00998182       0.12362929
C       20.85620045      21.50654234      22.02882513       1.16619285       0.05905891      -0.35199547
C       20.73490344      21.33918269      20.50911414       0.04102329       0.28061240      -0.06207388
C       22.45058572      22.84001769      19.67891849       0.05849517       0.56167855       0.01342837
C       23.77763486      22.90913838      18.91686567       0.03175213       0.00749834       0.22127687
C       24.65342144      24.08695886      19.35681647      -0.06308950      -0.18701973       0.00543103
C       25.95039555      24.13821920      18.54849515      -0.27431765       0.02853634       0.01091339
C       24.96116320      23.94074271      20.84693861      -0.29614347       0.08993307      -0.10360963
C       23.25308115      21.78021341      16.88004840       0.20118520      -0.76945114      -0.08724571
C       22.90183594      21.73864794      15.38425320      -0.17066038      -0.48131894       0.09022471
C       21.38258414      21.75356233      15.18992864       0.14772766       0.01773893      -0.12003194
C       21.03219830      21.58107460      13.71115390      -0.38665863       0.16846822       0.18717143
C       20.88051357      19.30461212      12.90506580      -1.43848355       0.09822697      -0.14493167
C       21.58179574      18.13744030      12.43364744       0.11891617      -1.12307001      -0.30160993
C       21.96497765      17.06536205      12.04164608      -0.04085550       0.96953688       0.26487713
C       22.48881836      15.79884321      11.53254372      -0.14702924      -0.19006473      -0.20424381
C       23.73000931      15.43726740      13.60456242      -0.01769318       0.00077403       0.07259762
C       22.93618054      13.53292865      12.40929656      -0.01852468       0.03774944      -0.03203833
C       21.39336720      15.21952330      10.62430515       0.09033871      -0.01924387       0.04930831
C       23.75159158      16.08328241      10.69245239      -0.07127504      -0.05124384       0.13070226
C       23.07722636      20.36388052      13.28163848       0.42090925      -0.05724502       0.13507606
C       23.50871294      20.48519648      14.74468790      -0.08151105       0.16742727       0.02519280
C       22.92499779      24.24206565      17.01943019      -0.21166765       0.40468208      -0.18004913
C       20.21740693      19.97158924      20.07014196      -0.08928127       0.34650300      -0.26310146
C       20.14894485      19.85134943      18.53456374       0.30219447      -0.39282385       0.03229652
C       19.31096123      18.62174731      18.14928065       0.33530116       0.25082786      -0.11426134
C       17.40551581      20.00694052      17.85298888       0.16452307       0.37803609      -0.08520961
C       18.25223952      21.23245231      18.18836550      -0.23316767       0.00393536      -0.02768649
C       19.67916324      21.93096911      24.13014599       0.17043366      -0.17548233       0.07395088
C       18.92112851      20.84776138      24.89233175      -0.06930621       0.26465897      -0.09208653
C       17.53262928      20.68270472      24.27914700       0.32171908      -0.26467669      -0.02604227
C       15.51464801      16.46436996      19.89407592      -0.00613695      -0.31991917      -0.42616932
C       15.21903896      15.69689683      18.73929341       0.41715465       0.62073975       0.06696942
C       15.86303885      15.94056951      17.52978864      -0.04272910      -0.11561953      -0.15724193
C       16.77364398      16.97297923      17.47246135       0.13590158       0.10536495      -0.06501883
C       17.06831244      17.74609545      18.60538854       0.03561231       0.06848925       0.28628071
C       16.46523916      17.47918991      19.81529573       0.03870879      -0.02924098      -0.17653440
F       23.46598887      22.84298384      14.72991592       0.02614946       0.13366912      -0.10490636
H        9.22650084      16.23833002      19.85389222      -0.02806727       0.07699650      -0.02256959
H        8.99931015      14.69136154      20.69652004      -0.04103554       0.04784751       0.02205000
H        9.91881904      15.99563497      21.45901620      -0.02021514       0.05256691       0.06735835
H       11.66150111      15.77392963      19.65413199      -0.16766317      -0.23932175       0.07387966
H       10.34809115      14.31353524      16.74404336      -0.02801403       0.11975668      -0.04749409
H        9.36252861      15.42805430      17.71672185       0.02397423       0.00842500      -0.03871132
H       11.08577023      15.78860567      17.42712427      -0.04061693      -0.02426258      -0.04295635
H       10.64072411      11.64601521      22.84607805       0.05228609      -0.06939796       0.09741744
H       13.06855389      11.59435847      23.45385202       0.01766702      -0.05086277       0.03470835
H       14.60425838      13.16540751      22.26341957       0.02661849       0.00869630      -0.00645953
H       12.80528675      13.41913750      18.50522294       0.25438398       0.15610480      -0.18523758
H       13.83588987      14.02966452      17.20090312      -0.11861474      -0.01052303       0.15324768
H       15.76534482      12.73000353      18.12322041       0.05284788      -0.03484686       0.00340579
H       14.73319461      12.12442672      19.42401201       0.00590201      -0.02650085       0.01501225
H       14.39866494      11.66975911      17.75138965       0.01863381      -0.10520647      -0.03975854
H       14.34706245      15.61733947      23.00773926       0.09245565       0.08496769       0.06574022
H       15.73317883      16.66087002      22.65672556      -0.04937218      -0.11722674       0.12738391
H       14.83578897      18.04896666      24.55778302      -0.01437894      -0.01229493       0.07292119
H       13.22780868      18.77158860      24.43977606      -0.01763906       0.04133293       0.04561620
H       13.39614180      17.03364415      24.69688075      -0.01162526      -0.02959918       0.02314888
H       12.00308993      16.54109567      22.59126084      -0.06881329      -0.03872552       0.00145272
H       11.77223843      18.28890367      22.46481572      -0.08923621       0.04041480       0.02772506
H       12.39795735      17.37942624      21.09005795      -0.08027378      -0.03627819      -0.05764871
H       13.78246239      19.79881301      22.21219102       0.09452921      -0.18313811      -0.02434601
H       14.42546010      18.79085402      20.90189062       0.01760032       0.04578539       0.20148326
H       18.18870984      19.44074725      22.63283989      -0.09038412       0.16059418       0.03042356
H       17.93698770      22.29718929      22.06222447       0.18815544      -0.22213373      -0.02581887
H       20.06082375      22.12948768      20.15807361       0.16394883      -0.28360251       0.05850285
H       22.61137245      20.81353628      19.67368608      -0.04146805       0.32936451      -0.04615148
H       24.33132234      21.97643524      19.05778805      -0.12390811       0.23156133      -0.01392415
H       24.08919894      25.01183183      19.22054962       0.03416668      -0.11526020       0.00249056
H       25.76896943      23.94929286      17.49456498       0.06195425       0.04933269      -0.10389491
H       26.41509268      25.11446356      18.65029906       0.10013351       0.03197354       0.01021744
H       26.64741924      23.38745814      18.91131921       0.08129169      -0.08405512      -0.01171501
H       24.04144411      23.87216787      21.42473307       0.06138503       0.04245438       0.05680264
H       25.54587122      23.04319687      21.03297767       0.06914180      -0.05628426       0.00225715
H       25.52380338      24.80212349      21.19480435       0.07246437       0.01891313       0.07797815
H       20.95834457      20.94080974      15.78021666       0.02808238       0.08540324      -0.06005341
H       20.95106303      22.68239042      15.55977779       0.04359680      -0.06516023       0.07475555
H       21.40633131      22.43663652      13.14019463      -0.07754289      -0.09789664       0.02607570
H       19.95157308      21.49962229      13.58491890       0.22931290       0.05515724      -0.01120583
H       23.59084911      16.50635093      13.75322274       0.08622215      -0.09814582       0.06483046
H       23.60962662      14.93859268      14.56637059       0.07049057       0.04777995      -0.03049166
H       24.75498066      15.25438314      13.24882270      -0.03393428       0.05305221       0.01543494
H       23.02915170      13.01026003      13.36031148       0.01358589      -0.03804956      -0.07547932
H       22.08237682      13.11947581      11.88075126       0.07410014      -0.08247604      -0.00566030
H       23.85042588      13.34431897      11.82633682      -0.05168790      -0.03224171       0.00982034
H       20.54081433      14.90962316      11.22224709      -0.00542019      -0.01448778       0.00857241
H       21.06473742      15.98690201       9.92763443       0.02978859      -0.03961624      -0.01077897
H       21.76977776      14.37510457      10.05493641      -0.00035606      -0.07346917      -0.04722588
H       24.49341531      16.62485077      11.27336333       0.03015645      -0.01035285      -0.00994601
H       24.18346791      15.14682120      10.34794796       0.02345443      -0.03560595      -0.02288804
H       23.48572711      16.68340633       9.82660842       0.00618564       0.03189345      -0.02592839
H       23.45909226      19.43856941      12.85001298       0.00180352       0.28049337       0.04796574
H       23.46932427      21.21522476      12.71611762      -0.03534540      -0.18421792      -0.02882058
H       24.59540272      20.54460178      14.80861520      -0.03991558      -0.02029714       0.07805572
H       23.17646977      19.62027098      15.31873773       0.05947793       0.09287712      -0.08043021
H       23.76892248      24.88393905      16.76810730      -0.09708372       0.01929889      -0.03613410
H       22.29690934      24.13628255      16.14376399       0.14892062       0.01295635       0.08145613
H       22.33486101      24.70639860      17.81055342       0.07701456       0.01967869      -0.08828707
H       20.87405422      19.18768596      20.44772991      -0.03287041      -0.05999592       0.05140659
H       19.21581844      19.82494009      20.46823187       0.24349686      -0.04596477       0.08612141
H       21.15832889      19.76066055      18.11741865      -0.24347616      -0.04386002       0.11143881
H       19.68934095      17.73698665      18.66260454      -0.00224144       0.04865991      -0.05775881
H       19.39056866      18.46197542      17.05825499       0.00091200      -0.00962381       0.21188718
H       17.41021754      19.83954119      16.75993609      -0.04477667       0.04904940       0.17553064
H       16.37831619      20.17736974      18.18038504       0.09543974      -0.00442464      -0.07130044
H       18.10736779      21.48495698      19.24518123      -0.00876678       0.00693069      -0.12880765
H       17.96365535      22.08375237      17.56985668      -0.02267229      -0.09281830       0.13416660
H       20.71493904      22.01074149      24.45927017      -0.22053328       0.03076802      -0.06376374
H       19.18450993      22.90056240      24.25626976       0.04169639      -0.04980703       0.02898732
H       18.84119110      21.12858978      25.94129840       0.03027931      -0.05287271       0.02379669
H       19.46956482      19.90761518      24.82363816       0.01016863       0.04289256       0.05433192
H       16.95269236      21.59879630      24.41549460      -0.02895703      -0.05307015      -0.03093133
H       16.99682049      19.85890096      24.74802489      -0.05574281       0.05748836      -0.01098530
H       15.65703381      15.34844593      16.65114268      -0.01931221      -0.02860780      -0.02966749
H       17.27274504      17.19540372      16.53966538      -0.00849383       0.01326754      -0.01094359
H       16.74131945      18.06376067      20.67557256       0.02507678       0.04022948      -0.03937070
