151
Properties=species:S:1:pos:R:3:MACE_forces:R:3 energy:=T -221.330081022807=T gnorm:=T 0.009631072404=T xtb:=T 6.7.1=T (edcfbbe)=T MACE_energy=-90873.31138013629 pbc="F F F"
C        9.85304472      15.03283793      20.83567821       0.19250536      -0.11138239      -0.32790858
N       11.38799308      12.70541653      21.18945248      -0.30345680       0.09142637      -0.05302156
O       10.84991747      14.33393174      18.70218670      -0.02867336      -0.10432588       0.19039224
C       11.12425803      14.80432508      20.02044205      -0.04852798       0.22300980       0.07390261
N       14.15984663      15.27604521      18.83770532      -0.27256110       0.08992212       0.25693325
O       15.64619154      19.05268919      22.94190284       0.02989096      -0.63513245       0.14508983
C       10.40066268      15.32862656      17.80801276       0.08309076      -0.02209132       0.14836880
N       17.91603313      21.75881005      22.74741083      -0.37438067       0.47254602      -0.01197174
O       20.67063265      17.08529033      13.40382050       0.72276576       0.27542849      -0.03789710
C       12.00605064      13.76421719      20.68721429       0.28724653       0.24362398      -0.14398591
N       19.14336140      22.11846916      23.31668990      -0.88426476      -0.02606686       0.76241713
O       23.51341669      20.67097081      17.97538391      -0.30108236       0.13483912      -0.37503761
C       12.09591762      11.77318076      21.80197573       0.08497905      -0.20684392       0.10791560
N       21.43323647      22.25769798      20.46037503      -0.03670967      -0.55130740       0.36765179
O       20.96438623      24.27942933      19.58302477       0.20649590      -0.16388969       0.11030477
C       13.46925731      11.85154941      21.97326419       0.01100378       0.05223867      -0.04411979
N       22.59007110      22.68296052      17.54145478       0.09454765       0.21892772       0.21362054
O       19.46993792      21.61646539      18.33010097      -0.11026783       0.01081945       0.03421598
C       14.12476344      12.94987723      21.44812791      -0.23818634      -0.00932795      -0.04218654
N       22.06433596      18.79760034      13.91437363       0.16178132       0.32389403       0.21122917
O       21.34268921      22.50269746      23.10111163      -0.58989178      -0.24034334      -0.18613513
C       13.39587559      13.92923652      20.77472962      -0.11254569      -0.28028747       0.14705478
N       23.63564661      14.69784176      10.25837715       0.16339886      -0.04113004      -0.10414364
O       15.20274664      21.20651889      22.49251219       0.42927016      -0.44799399       0.19683304
C       14.10603002      15.07664844      20.20197225       0.11782591       0.20992387       0.26614464
N       17.47466348      19.69668148      18.76297194      -0.15074376      -0.06129427      -0.14845869
C       13.81828515      14.30283698      17.83073532       0.06098827      -0.54349785      -0.29168791
C       15.00767858      13.39550815      17.51825459      -0.13170801       0.17344043      -0.00116720
C       14.81501183      16.05550395      20.85994270      -0.12775165      -0.32277936       0.03229033
C       15.00173128      16.21453880      22.33461065      -0.10306441       0.02825871      -0.00543589
C       14.04980069      17.21913179      23.02325917       0.19101307       0.22466995       0.09873206
C       14.26784121      17.14048468      24.53614759       0.05736967       0.03619494      -0.19488876
C       12.59415367      16.88893192      22.69835639       0.22942121       0.18266632      -0.04517220
C       14.32350098      18.65214181      22.54873764      -0.60577802      -0.05254748      -0.09941760
C       15.95263862      20.33287966      22.87286795      -0.09654674       1.04003820      -0.36049758
C       17.35110437      20.58894793      23.40960792      -0.25992487      -0.11386321       0.16735105
C       20.26244022      22.23016491      22.58599311       1.37834736       0.20075812      -0.41085836
C       20.14022025      22.05323204      21.06996912      -0.07083253       0.15088044      -0.17166272
C       21.70857586      23.31182594      19.68725765      -0.05475899       0.46604540      -0.18356373
C       22.99206541      23.17034444      18.86522374       0.12549171       0.19117414       0.05150879
C       23.78479985      24.48408412      18.79572165      -0.02333200      -0.14495053       0.11422356
C       24.98612601      24.34228928      17.86652012      -0.25732427      -0.00854871      -0.00962710
C       24.23994798      24.85418104      20.20645463      -0.27189191       0.07935430      -0.14232763
C       22.94624336      21.44215873      17.19570138       0.49862608      -0.81430359       0.16378921
C       22.63187469      20.91514969      15.78414987       0.07867712      -0.56226768       0.28498929
C       21.29630947      20.16459606      15.79993555       0.08644773       0.26425522      -0.20281620
C       20.98727082      19.62875069      14.40542349      -0.51271768      -0.05050915       0.14367109
C       21.79585927      17.59151874      13.38478120      -1.42770540      -0.41643891       0.09904118
C       22.87961577      16.90172448      12.73849469       0.87478691      -0.87229511      -0.63236489
C       23.66127713      16.21927676      12.12236058      -0.79856864       0.83091921       0.63149706
C       24.48571690      15.38443985      11.24986645       0.45099568      -0.34406317      -0.22579171
C       22.96816617      15.59546187       9.33171947      -0.04279964       0.09825540      -0.01298565
C       22.66808802      13.78638093      10.84189376      -0.12959623      -0.02467919       0.14078515
C       25.52247275      16.26408641      10.53089779      -0.16375572       0.00994559       0.03364086
C       25.23890662      14.34583074      12.09637666      -0.13540961       0.03779056      -0.00802226
C       23.36712981      19.42254884      13.90511704       0.41327616       0.15412146      -0.00349555
C       23.72574725      19.96164564      15.29276312      -0.15193230       0.17852460       0.02421286
C       21.76280690      23.57300495      16.75284987      -0.30787638       0.32552201      -0.38170587
C       19.58401876      20.69370787      20.63143874      -0.16554966       0.29952979      -0.34027348
C       19.75092676      20.46651701      19.11637388       0.23813966      -0.44297805       0.13003848
C       18.86735677      19.29229341      18.68132436       0.40966048       0.15480908      -0.12353959
C       17.22485297      20.80976543      17.86833808       0.18883703       0.23646341       0.04032819
C       18.09643681      21.97326763      18.33504704      -0.16067006       0.02925162      -0.16484121
C       19.14477115      22.36979083      24.75083985       0.22506042      -0.13123368       0.09430111
C       18.61890553      21.14249674      25.48885165      -0.09758117       0.19956657      -0.06969589
C       17.24524955      20.76675253      24.93766969       0.30857755      -0.18166800      -0.02196216
C       15.36333820      16.89789848      19.84737515      -0.00685834      -0.25803891      -0.53144649
C       14.92557190      16.38340880      18.60082489       0.32860622       0.62014190       0.19123210
C       15.27160003      17.00054564      17.40549168      -0.08117724      -0.08721929      -0.18563801
C       16.08249605      18.11263891      17.45881719       0.14387539       0.07936162      -0.05840461
C       16.57321807      18.59768818      18.67913857      -0.05280076       0.01901841       0.24059244
C       16.21607772      17.99800731      19.87037478       0.01214420       0.02104903      -0.18316688
F       22.56604253      21.96021768      14.85906506      -0.04667769       0.10869126      -0.08547469
H        9.25505046      15.82629772      20.39760705      -0.04393466       0.07550132      -0.01101068
H        9.27770575      14.11216946      20.86175669      -0.02399720       0.04501497       0.03512502
H       10.12046802      15.31344807      21.84921262      -0.02358444       0.04374741       0.10051044
H       11.68976099      15.74693759      19.93866816      -0.14026796      -0.27472203       0.01280638
H        9.39263847      15.67202165      18.05233991       0.02447132       0.01208023      -0.02595922
H       11.08313211      16.18718786      17.80592006      -0.05654628      -0.05469187      -0.04133406
H       10.39392976      14.86468978      16.82486891      -0.04589365       0.12049868      -0.03049981
H       11.52760926      10.93317425      22.17707123       0.07612828      -0.08029970       0.06969401
H       14.00739919      11.07568872      22.49293730       0.01164917      -0.05943647       0.03249040
H       15.19406964      13.05638277      21.54060095       0.07987855       0.01336592      -0.00720372
H       12.97191844      13.70765378      18.17909259       0.19561727       0.26766200      -0.16996103
H       13.51008182      14.83814434      16.92896674      -0.07098782      -0.08635119       0.17125857
H       15.29549701      12.83147293      18.40284640       0.00552285      -0.01676405       0.01132612
H       14.74448453      12.69625539      16.73052690       0.01659146      -0.08346649      -0.06217130
H       15.85979935      13.98868257      17.19206052       0.03282213      -0.04402578      -0.00900743
H       14.86079026      15.24466981      22.81666296       0.08558070       0.10514876       0.05090165
H       16.02607993      16.54498158      22.52023503      -0.03321374      -0.14960276       0.09207379
H       15.31408939      17.30871988      24.77875539       0.01483927      -0.00614286       0.07179357
H       13.66865207      17.89239624      25.04502091      -0.03171231       0.03453958       0.07689352
H       13.97755778      16.16112199      24.90712281      -0.00349654      -0.06624990       0.03060300
H       11.92105532      17.51372046      23.28030148      -0.07254472       0.01680171       0.03124986
H       12.39283835      17.05638583      21.64396905      -0.08094702      -0.03410961      -0.04987118
H       12.38862918      15.84706765      22.92710508      -0.05624735      -0.06556697       0.00583656
H       13.60452033      19.34970661      22.99145891       0.14427367      -0.15597669      -0.07669111
H       14.25005801      18.72728443      21.46097558       0.00288825       0.02234991       0.20038194
H       17.98556620      19.72606612      23.18936561      -0.06873898       0.14411451       0.01969870
H       17.24846799      22.53101141      22.82364436       0.27340313      -0.24042752      -0.05004798
H       19.50253694      22.86456250      20.69842102       0.14560536      -0.27402079       0.06428546
H       22.11130821      21.51689315      20.55606448      -0.03186888       0.26226818      -0.11826891
H       23.62683149      22.39092704      19.29685948      -0.14485410       0.21887813      -0.09780747
H       23.12317452      25.27361548      18.42816859       0.05536681      -0.12475385       0.05141909
H       24.67576487      24.11867670      16.84889346       0.05332249      -0.00357282      -0.04888938
H       25.55568963      25.26682803      17.85499537       0.09095555       0.04383505      -0.01655161
H       25.63403850      23.53901755      18.21092090       0.09006239      -0.05306175       0.00418582
H       24.91011187      24.09532114      20.60323608       0.07537097      -0.05012253       0.03255864
H       24.76349101      25.80658944      20.19175861       0.04022425       0.02647550       0.06983022
H       23.38476225      24.94152052      20.87434945       0.05053795       0.03688112       0.05619334
H       21.39463663      19.34238078      16.51035580      -0.03967411       0.05880149      -0.02295310
H       20.48994841      20.81731806      16.13736961       0.08911497      -0.06734677       0.02948333
H       20.84322719      20.47069723      13.71723642      -0.00987538      -0.12828791       0.08352721
H       20.07832674      19.02188038      14.41695564       0.22830444       0.18758400      -0.03881419
H       23.69954531      16.15446487       8.75539769      -0.08461649       0.04798817      -0.01831995
H       22.38476590      14.99232242       8.63808203       0.01737800       0.04623243       0.00526210
H       22.28586609      16.29910615       9.83347973       0.09824659      -0.06182043      -0.05768699
H       21.92028980      14.29701146      11.46876614       0.11203454      -0.06378405      -0.06173824
H       22.14702347      13.28111616      10.03065040       0.00434999      -0.00344655       0.03711491
H       23.17068828      13.03093337      11.43756437      -0.07144644      -0.02313225       0.01705083
H       25.99890808      15.68007003       9.74937079       0.03863202      -0.04414297      -0.04006631
H       25.06390755      17.14719218      10.09532373       0.02102124      -0.02563820      -0.02000542
H       26.27713383      16.59348958      11.23927176      -0.00366208       0.02240013       0.02611210
H       25.65879414      13.59329751      11.43705702       0.05862607      -0.05301070      -0.05945022
H       26.04331106      14.83026646      12.64049016       0.01985951       0.02922318       0.05926662
H       24.58546030      13.86702454      12.81961090       0.01663756      -0.01453738      -0.01665254
H       24.10909531      18.68882177      13.58618914      -0.13634797       0.26823221       0.05145467
H       23.35924792      20.25468847      13.19091021       0.07377055      -0.18389087       0.03059807
H       24.67580330      20.49392517      15.23804660      -0.04032745      -0.01849240       0.06737861
H       23.82341240      19.15450586      16.01803325       0.00927234       0.08883894      -0.08277390
H       20.95195808      23.02510373      16.28211536       0.08254069       0.07007726      -0.00874953
H       21.32063205      24.30476400      17.42141988       0.02241687      -0.02742072      -0.03302160
H       22.34326049      24.08646777      15.98755273      -0.06988375      -0.04318183       0.02323175
H       20.11648261      19.89457411      21.14907579      -0.04035837      -0.05914511       0.01723863
H       18.52551688      20.63991664      20.87921624       0.31289267      -0.10531159       0.02537165
H       20.79825710      20.24292238      18.88287456      -0.25508175      -0.05252608       0.07843558
H       19.03148837      18.44026058      19.34399685       0.01008898       0.09973100      -0.08780261
H       19.13691680      18.99094812      17.65164312      -0.04266376       0.00776760       0.21705972
H       17.47516477      20.57685926      16.81741891      -0.08339830       0.05044662       0.14541447
H       16.17077752      21.08505128      17.93388604       0.09872369      -0.00333143      -0.06460452
H       17.78247457      22.28221087      19.33873234       0.01206870       0.00262867      -0.10596187
H       18.01617303      22.82432673      17.65634046      -0.05515336      -0.10249608       0.13476670
H       20.16955314      22.60501092      25.03619498      -0.22430726       0.00115484      -0.04686856
H       18.50634273      23.23692540      24.95080556       0.03817356      -0.03617851       0.02098726
H       18.55374881      21.35956715      26.55366658       0.03029770      -0.04230171       0.02442571
H       19.31272244      20.31193424      25.34790710      -0.00257658       0.06187329       0.04989000
H       16.52197507      21.55799366      25.15691624       0.02542649      -0.09381598      -0.05761111
H       16.89020704      19.83862297      25.38733790      -0.05565070       0.07940820      -0.03305616
H       14.92818955      16.62328125      16.45394491      -0.00912103      -0.02498889      -0.02021997
H       16.36525849      18.60323750      16.54009099       0.01497630       0.01735054      -0.03212492
H       16.61885588      18.38373197      20.79285841       0.00375326       0.05869400      -0.00293028
