151
Properties=species:S:1:pos:R:3:MACE_forces:R:3 energy:=T -221.331931816291=T gnorm:=T 0.009009449587=T xtb:=T 6.7.1=T (edcfbbe)=T MACE_energy=-90873.37167629605 pbc="F F F"
C        9.89507779      15.52470237      19.87571492       0.23516834      -0.17873485      -0.27170753
N       10.92287048      13.27854312      21.23710189      -0.30267715       0.05339152      -0.14608358
O       11.15229895      14.04709971      18.36492383      -0.09020550       0.00513026       0.16764382
C       11.24304990      14.91596699      19.49257927      -0.02932267       0.19084728       0.01738143
N       14.54069278      14.81162211      19.06715929      -0.27575932       0.05947113      -0.02796895
O       15.74276202      19.30365256      22.52164762      -0.15499790      -0.63135297       0.39431212
C       10.94867328      14.69845914      17.13116622       0.02389063      -0.00225845       0.10560259
N       18.60839592      21.43895348      22.30126201      -0.32054958       0.29874623      -0.08792382
O       19.17193862      18.54568827      14.21140199       0.72094633       0.04013625      -0.28305967
C       11.79128502      14.07485097      20.63113727       0.35837370       0.16250441      -0.17582088
N       19.83517040      21.54883088      22.96709736      -0.85684602       0.07445781       0.75329675
O       23.34681458      20.52325108      17.20911466      -0.23910174       0.37814355      -0.30327502
C       11.32658962      12.52346732      22.24258451       0.09447756      -0.12567700       0.18644389
N       22.17393825      21.61301379      20.16291548      -0.19170567      -0.60883803       0.28736667
O       21.79883351      23.78151112      19.67220449       0.14194238      -0.16017973      -0.04577399
C       12.62734060      12.53006355      22.72177778       0.02466041       0.03723780      -0.03613326
N       23.21975478      22.76907169      17.28974973       0.21237502       0.23277094       0.20820370
O       19.76504053      21.19409903      18.20579664      -0.06229808      -0.01815364       0.06321998
C       13.54304876      13.35188413      22.09153731      -0.14287473      -0.04272823      -0.12616419
N       20.86302267      19.88501666      13.49853408       0.04280336       0.30642566      -0.17180271
O       22.08461764      21.52783758      22.86596654      -0.62327888      -0.11265248      -0.19381326
C       13.13836495      14.13867379      21.01323715      -0.17985107      -0.27571485       0.22461621
N       23.52084783      15.52902413      12.09132951      -0.04011198      -0.07327757      -0.07947484
O       15.98896682      21.29043772      21.51963754       0.19190597      -0.24938644       0.29970756
C       14.12549428      15.00842146      20.36581107       0.06071592       0.34594058       0.40428590
N       18.13618288      18.98346343      18.72229650      -0.18092359      -0.14660199      -0.21463831
C       14.24792724      13.66071766      18.25042265       0.01363855      -0.48677231      -0.16490560
C       15.33601004      12.59740837      18.37533998      -0.08147394       0.17993465      -0.06980255
C       14.78299205      16.08171760      20.92452158      -0.19357316      -0.35097741       0.08365256
C       14.64776974      16.60299394      22.32044254      -0.11265393       0.03636171      -0.08800520
C       13.77808529      17.86878485      22.50043839       0.19368230       0.17863079       0.09099021
C       13.55891918      18.09624944      23.99914459       0.09897984       0.00843663      -0.25537624
C       12.42881177      17.69142694      21.80457564       0.26817399       0.13547478       0.01677398
C       14.45987165      19.10704257      21.90468470      -0.45142317       0.03829224      -0.31171275
C       16.40680633      20.40734334      22.23242698       0.35161733       0.82105208      -0.60381709
C       17.76109055      20.42781650      22.92521002      -0.21017965      -0.00133889       0.18616588
C       20.99754976      21.47018892      22.30046736       1.25548333       0.13190913      -0.45486538
C       20.88818722      21.37288615      20.77824684       0.00454128       0.16256463      -0.04814718
C       22.47958325      22.76907289      19.56682245       0.10643707       0.41217699      -0.07429584
C       23.72258252      22.71898208      18.66646393       0.05888305       0.06899768       0.33780510
C       24.72261162      23.82067594      19.03992396      -0.03260794      -0.09896621      -0.05325124
C       25.88318050      23.88629445      18.05064690      -0.29855127       0.03322889       0.06446539
C       25.23747618      23.52311922      20.44870501      -0.27897896       0.14512626      -0.07263787
C       23.05477758      21.59667639      16.67007979       0.32753553      -0.94869456      -0.03613850
C       22.44762574      21.52910215      15.25568662      -0.22518110      -0.54540702       0.19329647
C       20.92859108      21.38711744      15.40436903       0.11387822       0.04947406      -0.17481055
C       20.26349253      21.07043037      14.06837485      -0.32736698       0.09124993       0.35149698
C       20.27170419      18.68410621      13.66861150      -1.13798759       0.23588733       0.45417336
C       20.97429103      17.56061288      13.10964662       0.06239812      -1.18166372      -0.33016252
C       21.38106673      16.52545686      12.64272538      -0.02751942       1.09010231       0.39985973
C       22.05767144      15.35280434      12.09046622      -0.01261302      -0.56685312      -0.19076011
C       24.06724889      15.81627053      13.40454957       0.05496695       0.04103360       0.10631677
C       24.01100907      16.48929477      11.11984883      -0.02465560       0.01146615      -0.04612027
C       21.69531991      14.11880363      12.93733843      -0.00062232       0.10099711       0.01135155
C       21.53451614      15.12646436      10.66369790       0.06627362       0.06060883       0.08754084
C       22.26554679      20.05760602      13.20049524       0.43491826      -0.04498053       0.05030969
C       23.04326041      20.34238265      14.48836665      -0.06398688       0.08416504       0.04048837
C       22.72380478      24.04007545      16.80280347      -0.14628081       0.52735113      -0.24104664
C       20.34828423      20.02818323      20.28863570      -0.08796084       0.37744209      -0.40608337
C       20.30239086      19.99693209      18.75008834       0.32488731      -0.47148239       0.02097716
C       19.49481233      18.78618658      18.26963436       0.28014172       0.22785119      -0.08047415
C       17.56433404      20.15018141      18.07345356       0.13131766       0.40189274      -0.05877912
C       18.38373241      21.37037644      18.48462962      -0.28862491       0.02405681      -0.08296302
C       19.78339932      21.81071415      24.39823978       0.25104849      -0.17040687       0.08362344
C       18.94500903      20.74216086      25.09435048      -0.10680345       0.28162667      -0.12648026
C       17.56854943      20.66815199      24.43530370       0.25120971      -0.32599385      -0.09466206
C       15.66085839      16.57259361      19.91589492       0.06312930      -0.24404872      -0.42656879
C       15.48768714      15.75132915      18.77277587       0.28969855       0.55518676       0.17553933
C       16.21374775      15.97054615      17.60642746      -0.01101886      -0.12978690      -0.19757721
C       17.09723784      17.02869677      17.57497956       0.11905914       0.06738599      -0.11670762
C       17.27735209      17.84552970      18.69923870       0.04442109       0.12380162       0.37577681
C       16.58660854      17.60832252      19.86787060       0.01741486      -0.05939276      -0.23609704
F       22.72990335      22.67920225      14.51245316       0.03403808       0.18398555      -0.15297802
H        9.52512740      16.16785248      19.08304945      -0.01632275       0.07808237      -0.01897686
H        9.18540838      14.72358066      20.05661849      -0.02793725       0.02902694       0.04296278
H       10.00800067      16.11487897      20.77945488      -0.05106407       0.06654962       0.05337163
H       11.96246890      15.71849986      19.25981297      -0.15865814      -0.22253138       0.07413139
H       11.06246922      13.92932781      16.36827691      -0.02526135       0.16168570      -0.02312675
H        9.94617031      15.13195564      17.05830967       0.10015651      -0.01690705      -0.02696621
H       11.69557981      15.48846883      16.97678366      -0.07977642      -0.07952980      -0.02905997
H       10.56900999      11.89269763      22.68387696      -0.00252556      -0.08152214       0.10811193
H       12.91458970      11.90996855      23.55543922      -0.00788385      -0.03639309       0.03140080
H       14.57387534      13.38617947      22.41169698       0.03155863       0.01414327       0.01615403
H       13.28430562      13.24818855      18.55556611       0.23323464       0.20497026      -0.15622328
H       14.16025642      13.98910017      17.20946029      -0.09180358      -0.04672042       0.20669374
H       15.40603873      12.24781620      19.40291574       0.00541326      -0.01586514       0.01965511
H       15.10095738      11.75388625      17.73413832       0.02525929      -0.12183408      -0.04031092
H       16.30027956      13.00592712      18.08040976       0.04081635      -0.05186399       0.01429333
H       14.20733259      15.81868146      22.93933570       0.09613693       0.10302686       0.04923726
H       15.64506342      16.82436026      22.70598891      -0.07688497      -0.11749289       0.10909209
H       13.01709947      19.02306789      24.16583726      -0.06649001       0.09504569       0.06120401
H       12.98061166      17.28221999      24.42356397      -0.05160528      -0.11002771       0.07793804
H       14.51227620      18.15542444      24.51542726       0.04228218       0.00215508       0.10367134
H       11.78394344      18.54507192      21.99650776      -0.09518849       0.04679270       0.02814633
H       12.56191871      17.59384786      20.73060312      -0.04146270      -0.03103107      -0.06501983
H       11.94002789      16.79348182      22.17349221      -0.05492260      -0.05142670       0.01063847
H       13.85319521      20.00278204      22.07155982       0.08454709      -0.18782856      -0.02522022
H       14.60783737      18.99301359      20.82693113      -0.01914553       0.05088589       0.19223090
H       18.23913222      19.45220981      22.78129224      -0.08898067       0.15555284       0.00526125
H       18.11650370      22.33509784      22.29834373       0.20104841      -0.22750197      -0.02614143
H       20.23516954      22.18752408      20.44660698       0.16127685      -0.33047169       0.05153877
H       22.79593915      20.82660787      20.07183490      -0.02949876       0.21511703      -0.13604658
H       24.21578138      21.74765592      18.76915250      -0.10095262       0.29036391      -0.00932004
H       24.20298903      24.78339917      19.06642119       0.04549000      -0.17582898      -0.02312313
H       25.55211375      24.21982620      17.07065976       0.03986340      -0.03335576      -0.06050088
H       26.63217901      24.58463738      18.41367776       0.08979573       0.02423646      -0.03622190
H       26.34345054      22.90578249      17.94557739       0.07133397      -0.03469360      -0.02812318
H       25.80477769      22.59592743      20.46059395       0.07525846      -0.08690983       0.00921585
H       25.88227254      24.32864408      20.78761330       0.06935200       0.01800053       0.06749640
H       24.40910234      23.42716671      21.14987771       0.08847079       0.00304145       0.05944310
H       20.73992410      20.57174314      16.10323244       0.00076753       0.15681718      -0.09541301
H       20.50185095      22.29236370      15.83494644       0.07265327      -0.13153693       0.04975139
H       20.39859440      21.89793046      13.36835885      -0.04675850      -0.08637255       0.02976283
H       19.19938797      20.88172599      14.21556741       0.21171836       0.08403347      -0.07763698
H       23.74942737      15.06226411      14.11857367       0.03122435       0.04677610       0.02605530
H       25.15395936      15.78073381      13.33758496      -0.05709791       0.00745305       0.04963391
H       23.77355046      16.80675867      13.78734783       0.01668888      -0.12213920      -0.03779009
H       23.54452966      17.48138753      11.22004090       0.03626233      -0.06453699      -0.02310372
H       25.08402430      16.60192404      11.26383356      -0.04867286       0.01559597      -0.03433788
H       23.84714592      16.11757953      10.11200749       0.01040194       0.10913129      -0.00554087
H       22.40497494      13.32720256      12.72164296       0.04845173      -0.06965927      -0.04429482
H       21.71421747      14.34075353      13.99951196       0.02778193      -0.03104008       0.01922488
H       20.69564555      13.77756358      12.68553097      -0.04556556       0.01664040       0.03924628
H       22.05883322      14.28646598      10.21941151       0.05547411      -0.07473365      -0.05943230
H       20.47138735      14.90297029      10.70424491       0.02833190      -0.00305064      -0.00241639
H       21.66473648      16.00765692      10.04414089       0.01059499      -0.00319864      -0.02973334
H       22.64960444      19.15370341      12.72568800      -0.05644786       0.23080108       0.01982110
H       22.36854665      20.89959563      12.51004572       0.00678239      -0.16173180       0.01515300
H       24.08392158      20.56663310      14.25179273      -0.02110027      -0.03064216       0.07888262
H       23.01874666      19.47389691      15.14830859       0.00680246       0.11336221      -0.13539840
H       23.40730794      24.47369934      16.07173295      -0.14216131      -0.01406150       0.08208771
H       21.74142468      23.92698718      16.34707396       0.19369467       0.09474254       0.07275660
H       22.61608655      24.71263170      17.65053268      -0.02642018      -0.14947827      -0.14290453
H       20.99119113      19.22178268      20.63755148       0.02096081      -0.08417899       0.04958890
H       19.34109505      19.87441229      20.66484476       0.19436291      -0.03596922       0.07203249
H       21.31957521      19.94674331      18.34245559      -0.28023316      -0.03536899       0.14181431
H       19.89311831      17.87148862      18.71051035       0.00178565       0.05498425      -0.04886034
H       19.56659550      18.70940854      17.16907118       0.02234290      -0.02413925       0.21047386
H       17.57317533      20.04231724      16.97403787      -0.04788345       0.02939740       0.14218890
H       16.53447073      20.27700017      18.41154307       0.09054059       0.01585649      -0.06302964
H       18.22602368      21.56425639      19.55171103      -0.00070736      -0.01929284      -0.11813693
H       18.08108913      22.25061750      17.91284043      -0.01596794      -0.12280996       0.14080339
H       20.81090300      21.82079606      24.76053154      -0.20374388       0.04405773      -0.05245045
H       19.33796415      22.79988125      24.55187276       0.04879493      -0.05262924       0.02254105
H       18.84888370      20.99150641      26.14903150       0.02096231      -0.06472928       0.04678958
H       19.44604861      19.77700156      25.00774202       0.02219510       0.02563232       0.05797796
H       17.02942980      21.60619658      24.58544794      -0.03512865      -0.03762725      -0.02776394
H       16.97925298      19.85566836      24.85667088      -0.04863546       0.06876983       0.01835193
H       16.08993638      15.34353774      16.73631710      -0.02561165      -0.04029713      -0.01033612
H       17.65522637      17.23462296      16.67207911       0.00134990       0.01156740      -0.01523686
H       16.79070489      18.23732786      20.71481300      -0.00818516       0.01403104       0.06755319
