151
Properties=species:S:1:pos:R:3:MACE_forces:R:3 energy:=T -221.329819487212=T gnorm:=T 0.009156884849=T xtb:=T 6.7.1=T (edcfbbe)=T MACE_energy=-90873.32416605894 pbc="F F F"
C        9.52243095      15.61667137      20.69049560       0.17900301      -0.14469040      -0.27397887
N       10.72219362      13.29640710      21.78851086      -0.30873852       0.03966857      -0.07106985
O       10.45165855      14.10699534      18.98406358      -0.07037643       0.02050468       0.15936141
C       10.76466560      14.97886189      20.06987533      -0.04371498       0.16652341      -0.00239991
N       13.94528748      15.03650777      19.16834714      -0.24495387       0.09985691       0.00038361
O       15.72694342      19.14093462      22.76859047      -0.14168727      -0.69628453       0.27819018
C        9.95701642      14.74761422      17.82922702       0.06768874      -0.03782347       0.15403746
N       18.50412289      21.33525380      22.45258231      -0.27299603       0.19154674      -0.09022245
O       19.66441075      18.18504437      13.13377628       0.80948085       0.11425061      -0.07540618
C       11.49016287      14.11469640      21.08422298       0.34294422       0.17053225      -0.20039683
N       19.78560135      21.45079226      22.99576880      -0.59637685       0.03215429       0.76472274
O       23.28804834      20.47155667      17.41951762      -0.21402638       0.19886082      -0.29275672
C       11.27100706      12.50102597      22.68878898       0.03544881      -0.13831074       0.16777531
N       21.86284170      21.55804404      20.00650947      -0.21433124      -0.91399993       0.15821058
O       21.68404814      23.80478004      19.98749374       0.16041862      -0.20127677      -0.01796681
C       12.63157275      12.47941917      22.95051723       0.02955113       0.05381974      -0.05557844
N       22.96267695      22.70097203      17.40452511       0.21283667       0.10017840       0.20646750
O       19.50577885      21.12459811      18.08987814      -0.08043935      -0.03283323       0.06382400
C       13.44257926      13.32742392      22.21948091      -0.19254979      -0.06253736      -0.10014522
N       21.34626050      19.69960422      13.29504566       0.14760447       0.37131918       0.00841979
O       22.01036391      21.48948749      22.66152666      -0.55799794      -0.15668930      -0.10703301
C       12.88101430      14.16815134      21.25685274      -0.17186633      -0.30335191       0.23689771
N       24.39780816      15.38469784      12.07381481      -0.00997432       0.01677607       0.07806929
O       15.79172942      21.26762188      22.05960168       0.33628206      -0.50697531       0.28806040
C       13.76721358      15.08513022      20.53402177       0.17505226       0.30097642       0.36855700
N       17.66065604      19.09978502      18.65635093      -0.11225019      -0.11753843      -0.20200424
C       13.51036162      13.97661234      18.29231355       0.08231549      -0.49068026      -0.13755629
C       14.61510166      12.94165205      18.08650207      -0.08952994       0.17482788      -0.02853974
C       14.55291387      16.07406172      21.08456828      -0.19043699      -0.36759243       0.08013334
C       14.63063650      16.46653314      22.52513211      -0.14538847       0.09656726      -0.08318172
C       13.78529736      17.69967697      22.92367641       0.22140327       0.15477822       0.07594151
C       13.78786626      17.82009022      24.44992369       0.04231039       0.03066758      -0.21347894
C       12.34929077      17.54594211      22.42435855       0.25297610       0.11798436       0.00919438
C       14.37068201      18.98179612      22.32190376      -0.48649550       0.05369471      -0.22413455
C       16.31690595      20.30113173      22.57011602       0.18656643       1.13801276      -0.48329203
C       17.73677480      20.28735399      23.11182828      -0.15770341      -0.00255697       0.12144923
C       20.87504334      21.40993086      22.21026222       0.96303354       0.14052904      -0.46908391
C       20.61719339      21.33085566      20.70012961       0.09286754       0.27359097      -0.06884909
C       22.28481107      22.78006742      19.68364842       0.06430131       0.56585161      -0.06518439
C       23.50872260      22.77883899      18.76302329       0.11801560       0.08159853       0.28178433
C       24.43388499      23.97894800      18.98961507      -0.01490049      -0.16808189       0.02571126
C       25.60196118      23.95483446      18.00668722      -0.31203351       0.03443056       0.05658981
C       24.95035627      23.92863930      20.42739870      -0.27237223       0.08105462      -0.08450390
C       22.93181784      21.49520948      16.82876794       0.32489270      -0.73720826      -0.03006449
C       22.45851265      21.34578983      15.37593727      -0.11169334      -0.61320196       0.18095314
C       20.98008303      20.94695852      15.35486019       0.07530610       0.24000653      -0.22876078
C       20.51288216      20.69932742      13.92183186      -0.41065833       0.02580420       0.27676262
C       20.84720845      18.49202461      12.96982523      -1.31067354      -0.06745040       0.16786074
C       21.78693141      17.58336583      12.36471900       0.36957902      -0.97343702      -0.44589801
C       22.48200331      16.75882285      11.82972337      -0.37989506       0.70608972       0.44395855
C       23.38336153      15.85355981      11.11958883      -0.03552883      -0.13797250      -0.28544162
C       25.18934868      16.44798544      12.66093318       0.02004767      -0.03449946       0.06554039
C       25.25608969      14.32205969      11.59259678      -0.06470196       0.00044429      -0.00404872
C       22.53511643      14.67752266      10.61106534       0.05494096       0.06926036       0.02637349
C       23.95366203      16.63821429       9.91606692       0.07212386      -0.11832031       0.12174293
C       22.74389643      20.05638068      13.24208977       0.40080893       0.03866825       0.08370785
C       23.29021110      20.27990717      14.65397891      -0.06853361       0.14394404       0.00375267
C       22.27727089      23.87892909      16.91846015      -0.24676423       0.39410877      -0.20894800
C       19.99601724      20.01121162      20.24108545      -0.07637185       0.33859088      -0.39486289
C       19.93061784      19.91693386      18.70459357       0.24022511      -0.47450635       0.09257446
C       19.01885544      18.74934448      18.29681805       0.34294028       0.21981219      -0.08884007
C       17.23559951      20.25861455      17.89568942       0.15622706       0.36792671       0.04721490
C       18.13474480      21.42279479      18.30400736      -0.23845998       0.00755824      -0.10377648
C       19.88790040      21.63363266      24.43662609       0.22530683      -0.14799819       0.04630279
C       19.14088574      20.51228866      25.15438389      -0.10450781       0.29997470      -0.06165091
C       17.70332725      20.45749403      24.64199502       0.21596228      -0.28418716      -0.09625597
C       15.27182038      16.65977156      20.00198235       0.03268586      -0.24275861      -0.44208967
C       14.86342903      15.98789701      18.82292644       0.31252790       0.53388943       0.18858276
C       15.36933489      16.34243851      17.57625173      -0.05659381      -0.10516366      -0.19392396
C       16.28694332      17.36776202      17.51364029       0.12510032       0.03425649      -0.08269555
C       16.72474432      18.02014188      18.67582393       0.03319786       0.12987267       0.31090055
C       16.23532520      17.66234032      19.91328323      -0.03612098      -0.04842188      -0.15817388
F       22.62915034      22.53974379      14.66740109      -0.00008896       0.16080314      -0.13349548
H        9.02217426      16.25774835      19.96983651      -0.01451998       0.06039907       0.01455415
H        8.84513522      14.83345451      21.01690933      -0.01227120       0.02491915       0.02481188
H        9.81258682      16.21883945      21.54680838      -0.03101686       0.04701531       0.03357310
H       11.44264665      15.76791508      19.70506190      -0.12819632      -0.22132815       0.10040895
H        8.95070490      15.14472774      17.98399273       0.04853917       0.00707075      -0.05456951
H       10.62309274      15.56000345      17.51738093      -0.04726523      -0.01443448      -0.03148093
H        9.92536864      13.98242449      17.05660883      -0.03542854       0.12160437      -0.04328173
H       10.58146265      11.86157118      23.22411523       0.07517301      -0.05975741       0.06880052
H       13.04201629      11.82048240      23.69757705       0.01117905      -0.04658792       0.04505170
H       14.51110824      13.34051494      22.37248592       0.04451685       0.02568828       0.01033946
H       12.62853979      13.50046853      18.72293383       0.16479723       0.22938146      -0.15850744
H       13.23079467      14.41593108      17.33199373      -0.11564969      -0.05111927       0.13830098
H       14.24963579      12.13148785      17.46294816       0.02349068      -0.09643275      -0.05320532
H       15.47677816      13.39827907      17.60278080       0.03013155      -0.06733711       0.01758336
H       14.93286981      12.53282621      19.04370365      -0.01421435      -0.01840449      -0.00206149
H       14.28782060      15.63086832      23.13566684       0.10280199       0.07127270       0.05522753
H       15.67110138      16.67518984      22.77796471      -0.03982638      -0.12591953       0.11265753
H       13.28515541      16.96638341      24.89534140      -0.02646142      -0.07679172       0.06436742
H       14.80626243      17.86124796      24.82632850       0.03707190      -0.00585508       0.07836157
H       13.26798528      18.72440378      24.75930925      -0.03793351       0.04129184       0.06532501
H       11.93129717      16.61151771      22.79103688      -0.05001394      -0.03505339       0.01071978
H       11.73119360      18.36691275      22.77800367      -0.08631126       0.05515055       0.03980954
H       12.32023025      17.53213804      21.33863312      -0.05736295      -0.02240078      -0.07243165
H       13.79638982      19.86030756      22.63188162       0.08011760      -0.19023936      -0.05104990
H       14.37093612      18.94004164      21.22881441      -0.00351915       0.04588690       0.20277964
H       18.20160402      19.32543914      22.86851459      -0.10317347       0.14059007       0.04289796
H       17.99760967      22.21487356      22.51221195       0.09450688      -0.04415734       0.00430591
H       19.96076684      22.17147170      20.44546078       0.13936767      -0.33196134       0.02687869
H       22.42911788      20.75413006      19.76882044      -0.08798568       0.38837343      -0.05747260
H       24.07846442      21.85829526      18.91867231      -0.09689386       0.24986316      -0.03785319
H       23.86129799      24.90112430      18.86312875       0.02802871      -0.13372579       0.00812063
H       26.24086843      24.81781531      18.17068539       0.08680201       0.03290733      -0.03173928
H       26.19415499      23.05383674      18.15241724       0.07152221      -0.05183697      -0.02380478
H       25.25338760      23.97224121      16.97737183       0.04503488       0.00572240      -0.08211364
H       25.53602221      23.02699766      20.59203158       0.08162197      -0.05301908       0.00479469
H       25.57696527      24.79256274      20.62940428       0.07544206       0.02391002       0.05743071
H       24.12246919      23.93039696      21.13267738       0.04893956       0.02499327       0.05514183
H       20.88268969      20.03174261      15.93895132      -0.03229639       0.09008732      -0.00817272
H       20.36329562      21.70921591      15.82910918       0.10344793      -0.09672897       0.00014783
H       20.57799226      21.62640691      13.34425380      -0.04321143      -0.10915359       0.03900877
H       19.48340827      20.33798096      13.91424942       0.22714064       0.10608266      -0.04326622
H       24.53470248      17.24583364      13.00295143       0.08819186       0.01216536       0.01402013
H       25.71536714      16.04406915      13.52561452       0.02098377       0.08060329      -0.03506117
H       25.93512674      16.86437510      11.96929383      -0.02971098       0.02436496       0.02349232
H       25.89232197      14.01087945      12.42057180       0.00071739      -0.03656133      -0.08971318
H       24.66199374      13.46666163      11.28478622       0.07916773      -0.02974917      -0.03376957
H       25.90797961      14.62875458      10.76097141      -0.01374265      -0.04620965       0.02739947
H       22.27285545      14.02504144      11.43837153      -0.00604284      -0.03346639       0.02218179
H       21.61888814      15.06034502      10.16862296       0.03481281      -0.02991494      -0.03612761
H       23.07151580      14.11347286       9.85463909       0.03372840      -0.06628494      -0.03520728
H       24.39231272      17.57986660      10.23915695       0.00711304      -0.03352421      -0.03869168
H       24.71425864      16.04535742       9.41230016       0.00313940      -0.00815383      -0.04418306
H       23.15493816      16.85374906       9.21126782       0.01593728       0.04243101      -0.02662376
H       23.30090799      19.26401521      12.74349480      -0.09608673       0.20177696       0.03820798
H       22.84486066      20.98245831      12.66558740       0.03354995      -0.18251420       0.01154747
H       24.32904807      20.60711016      14.60032413      -0.04088549      -0.01332990       0.06485326
H       23.24595313      19.36196452      15.24050191       0.02127557       0.10199528      -0.11008659
H       21.95151054      24.45820759      17.77836861       0.00491751      -0.04987150      -0.05063250
H       22.92976200      24.48781017      16.29812985      -0.04177692       0.03909712      -0.03740397
H       21.39566897      23.60673853      16.34605508       0.10323356       0.07594031       0.04737916
H       20.59086750      19.17498408      20.60804242      -0.01390687      -0.07276627       0.03109833
H       18.98491243      19.93730428      20.63493971       0.23125572      -0.05745088       0.02981983
H       20.93548843      19.75543743      18.29852855      -0.22770127      -0.02732795       0.11425878
H       19.31126205      17.84677648      18.83420976       0.01137527       0.05466524      -0.06394000
H       19.12771958      18.56361241      17.21178069      -0.00902914      -0.01037483       0.19153384
H       17.31237167      20.09491827      16.80549332      -0.04354671       0.02731958       0.14700848
H       16.20003814      20.49103040      18.14817111       0.08548748       0.00432368      -0.05455931
H       17.95166765      21.66008143      19.35842012      -0.00567103      -0.00323323      -0.11063680
H       17.93384550      22.30493986      17.69435712      -0.04885909      -0.06878914       0.12820516
H       20.94959210      21.63880236      24.68313151      -0.22431321       0.04480481      -0.02678852
H       19.45371769      22.60525832      24.69695048       0.04800097      -0.06106047       0.00696901
H       19.15728816      20.69548978      26.22770348       0.02303244      -0.05996600       0.00763840
H       19.63881614      19.56215687      24.95624412       0.03093528       0.01521917       0.05434366
H       17.18514804      21.38750494      24.88689572      -0.04654738      -0.04774433      -0.02542412
H       17.16082799      19.62747132      25.09108471      -0.04839595       0.04413673       0.01080695
H       15.05079698      15.83885181      16.67677206      -0.01304012      -0.03598141      -0.04510836
H       16.68627332      17.66728848      16.55470278       0.01315302       0.01167363      -0.00970378
H       16.61314675      18.16377843      20.78819745      -0.01711494       0.04857383      -0.00181063
