151
Properties=species:S:1:pos:R:3:MACE_forces:R:3 energy:=T -221.331176482661=T gnorm:=T 0.006263034007=T xtb:=T 6.7.1=T (edcfbbe)=T MACE_energy=-90873.3411832324 pbc="F F F"
C        9.82906726      15.12975086      20.69171095       0.26968836      -0.05265858      -0.27629299
N       11.31751930      12.87124437      21.33837631      -0.30936796       0.07675166      -0.06175049
O       11.04085664      14.40433010      18.68691177      -0.04013780      -0.08432103       0.21469960
C       11.18082235      14.89470616      20.02114630      -0.07433068       0.21743703       0.02562845
N       14.38334342      15.00094856      18.84550812      -0.32155746       0.07145966       0.18115299
O       16.06105739      18.99285549      22.72791012      -0.13852170      -0.64517122       0.18607152
C       10.70185255      15.38853663      17.73605400       0.03662837       0.00924212       0.10701831
N       18.77250234      21.25337063      22.41382071      -0.35965305       0.37464830       0.01704968
O       19.26660951      18.34204614      14.16885333       0.66070981       0.18517456      -0.27792018
C       11.99505659      13.86140689      20.77673180       0.30205291       0.20741078      -0.15584041
N       20.07710289      21.39090121      22.89609315      -0.68443563      -0.08408418       0.81632882
O       22.98619485      20.93738644      16.77199220      -0.27088152       0.23911636      -0.21859030
C       11.96771250      11.93862968      22.01220829       0.03637491      -0.19580124       0.15267397
N       21.94188794      21.86577206      19.79746228      -0.01268876      -0.63103730       0.30437498
O       21.28442984      23.99004882      19.42651370       0.19861527      -0.18411488      -0.01962540
C       13.34112204      11.95568801      22.19513132       0.02360180       0.04983978      -0.04651246
N       22.57390858      23.14330635      16.87571967       0.20452401       0.21375738       0.19669714
O       19.67345916      21.34435128      17.97139726      -0.11680008      -0.00591540       0.03123712
C       14.05830365      12.98265249      21.60785755      -0.16453736      -0.01386800      -0.03367445
N       20.61634743      19.88613513      13.18759552      -0.07006329       0.28809989      -0.30507076
O       22.27278736      21.59287485      22.44904132      -0.58506266      -0.17989583      -0.10324239
C       13.39165062      13.95368824      20.86223248      -0.10758242      -0.23732906       0.18076276
N       22.70929452      14.63332196      12.31902270      -0.08106577       0.05751089      -0.06322784
O       16.04063132      21.17733088      22.22705223       0.27144448      -0.45185359       0.18853761
C       14.18471630      15.00400142      20.20851918       0.07751903       0.24216091       0.30983318
N       17.90042538      19.24615295      18.48771749      -0.29276024      -0.18043063      -0.13014396
C       14.01084078      13.93871492      17.94478306       0.02209109      -0.55178663      -0.15139617
C       15.07908610      12.84753176      17.90325666      -0.11614029       0.19124729      -0.05240517
C       14.88985224      16.02993838      20.79579766      -0.17338808      -0.31991641       0.07550267
C       14.98360241      16.32537257      22.25904835      -0.10714535       0.03707125      -0.02401630
C       14.13232154      17.50493801      22.78483971       0.21969848       0.14855545       0.10467297
C       14.14966823      17.46820797      24.31597915       0.08649211      -0.00450131      -0.21606047
C       12.69178703      17.39482082      22.28758228       0.23191156       0.16626196      -0.01839415
C       14.69325641      18.84872925      22.30631090      -0.56553174       0.09703669      -0.17672738
C       16.61403367      20.18381646      22.61855893       0.15044814       1.05252646      -0.38184516
C       18.05952774      20.17365530      23.08826175      -0.16398681      -0.01018744       0.16001859
C       21.11793617      21.47773588      22.05289532       1.21294166       0.17464595      -0.60121682
C       20.77733758      21.48323116      20.56114734      -0.06559539       0.23469156      -0.10700792
C       22.05859881      23.06221973      19.21801603      -0.00342854       0.42907634      -0.11090655
C       23.20114709      23.16413488      18.20058067       0.05314224       0.03229608       0.20753299
C       24.10015685      24.37995689      18.45173312      -0.01550943      -0.18698036       0.01807059
C       25.22325863      24.44473886      17.41934607      -0.28217410       0.03923282       0.02972529
C       24.68467976      24.25340632      19.85842980      -0.28133400       0.11556716      -0.08504690
C       22.54125357      21.96423028      16.25104190       0.35656136      -0.83677354      -0.08713663
C       21.93620307      21.83040799      14.83955213      -0.06919993      -0.46869759       0.10070532
C       20.44657625      21.49742212      14.98606562       0.07552127      -0.04730527      -0.08591461
C       19.83064957      20.99532532      13.67944144      -0.34049728       0.10227819       0.38123213
C       20.31998077      18.63330196      13.59791621      -1.16866263      -0.08564342       0.34503163
C       21.32205255      17.64579677      13.29720614       0.70402142      -1.01961114       0.05553779
C       22.15353793      16.78749632      13.15060040      -0.69042120       0.78154921      -0.01172129
C       23.24115494      15.82662728      12.98673588       0.31770086      -0.02279373       0.07131220
C       21.58090334      14.02887318      12.99880361      -0.20531490       0.03235150       0.07991149
C       23.69325923      13.62733495      11.97791024       0.01536507       0.05057019      -0.00000117
C       24.30281555      16.50444335      12.10414636      -0.04198391      -0.07738191       0.06697674
C       23.82845399      15.57246149      14.39318955      -0.06832559      -0.12014264      -0.12868830
C       21.95359314      20.29483229      12.82087953       0.49298362       0.09149422       0.05771924
C       22.70201567      20.74213821      14.07643345      -0.06429305       0.00166110       0.08253175
C       21.87710817      24.34521004      16.46995798      -0.28840229       0.43509413      -0.13564523
C       20.24131272      20.14029749      20.05275046      -0.18247978       0.33065896      -0.22042409
C       20.14486220      20.11818506      18.51496392       0.32137430      -0.50193038       0.01280661
C       19.25272417      18.95418011      18.06221496       0.43003910       0.23157708      -0.25165521
C       17.41862874      20.43118501      17.80337358       0.20100971       0.32466125      -0.00725449
C       18.30327446      21.59668382      18.23920798      -0.16451351       0.01384833      -0.05855680
C       20.24301422      21.54416654      24.33485266       0.17176772      -0.13553039       0.04622895
C       19.55602675      20.39374344      25.06476283      -0.08321162       0.25930947      -0.07177209
C       18.09587266      20.32140438      24.62281613       0.22419785      -0.24958909      -0.11338378
C       15.58027127      16.69210230      19.73733388      -0.01872343      -0.27188620      -0.49198835
C       15.24437520      16.01536647      18.53675440       0.33564176       0.59634319       0.10635734
C       15.77445616      16.40155867      17.31027512      -0.03756532      -0.08660833      -0.15433596
C       16.64507860      17.46875183      17.28373953       0.13511555       0.08038927      -0.11518878
C       16.99960399      18.13666448      18.46468369       0.02190613       0.07094797       0.29020393
C       16.48338976      17.75104484      19.68340385       0.02448159       0.00193653      -0.14275582
F       22.07562598      23.01570724      14.10744009      -0.01374820       0.16009087      -0.11165553
H        9.27957665      15.91354742      20.17887307      -0.03285928       0.07656578      -0.01688347
H        9.25718940      14.20824437      20.66761454      -0.04103262       0.01728999       0.04487120
H        9.97962912      15.42718859      21.72545744      -0.02403818       0.01984558       0.06935227
H       11.75400944      15.83554086      19.98524277      -0.14110895      -0.28085117      -0.01680376
H        9.69602837      15.78515126      17.90130242       0.06064130      -0.00261747      -0.04649840
H       11.42396430      16.21361947      17.75723791      -0.05778314      -0.05231541      -0.04415335
H       10.73968326      14.89509726      16.76695125      -0.03777277       0.12980874      -0.00299684
H       11.34809285      11.15473805      22.42991031       0.11599097      -0.04293773       0.05937542
H       13.83430728      11.18864988      22.76991704       0.00255949      -0.05509642       0.03186965
H       15.13301385      13.03787738      21.70819995       0.01111201       0.00691137      -0.01655755
H       13.05599914      13.51991257      18.26865590       0.24096446       0.19358595      -0.19367186
H       13.87639506      14.36977990      16.95083979      -0.09811145      -0.03540657       0.14177196
H       16.03992207      13.26899695      17.61633811       0.04496859      -0.03430106      -0.00933613
H       15.18088712      12.38261755      18.88085523       0.01322946      -0.03157526       0.01633628
H       14.79974408      12.08505658      17.18248841       0.01917800      -0.10141612      -0.04495653
H       14.67400476      15.43224210      22.80562210       0.09889390       0.08792567       0.05950080
H       16.02670599      16.53313045      22.50458579      -0.05355572      -0.14554012       0.11182531
H       15.17134867      17.50444503      24.68564243       0.02152343      -0.00860868       0.07153141
H       13.60276081      18.31513862      24.72281815      -0.03783673       0.06464777       0.06749404
H       13.68191270      16.55417030      24.67395412      -0.00241127      -0.04505189       0.03228676
H       12.29376639      16.41015617      22.52087050      -0.05799885      -0.02700813      -0.01978765
H       12.06397385      18.14522100      22.76347566      -0.05780494       0.01540584       0.01480244
H       12.64780517      17.54302498      21.21075207      -0.05979842      -0.05578445      -0.01237748
H       14.11452033      19.68310678      22.71655658       0.08938861      -0.20188650      -0.06999355
H       14.66429848      18.91757461      21.21490264       0.02345627       0.00214736       0.21610582
H       18.52367425      19.22364250      22.80371809      -0.07687242       0.17027531       0.05458015
H       18.24540047      22.12169677      22.53016422       0.19793181      -0.24039357      -0.03872397
H       20.03706376      22.27378413      20.39825082       0.17705520      -0.26032468      -0.01079299
H       22.63286871      21.15209213      19.62561547      -0.05743254       0.29085929      -0.12117208
H       23.81309920      22.25942916      18.25610996      -0.11160494       0.26770736       0.01625787
H       23.49649514      25.28947479      18.40522148       0.03009792      -0.10197448       0.01178939
H       25.83509903      23.54699803      17.47688914       0.07822932      -0.05756027      -0.01599177
H       24.83166685      24.52542118      16.40863996       0.03330756       0.00467844      -0.06617672
H       25.85547731      25.30651414      17.61548624       0.07249404       0.02541145      -0.02889171
H       25.26716526      23.33956067      19.94583308       0.08562414      -0.06497816       0.01199934
H       25.33109723      25.09806832      20.07308848       0.07198170       0.04976620       0.08004246
H       23.89346412      24.22233074      20.60526744       0.06215706       0.02287608       0.05624312
H       20.36404114      20.71703889      15.74388151      -0.04813136       0.12321329      -0.14978892
H       19.90185015      22.36750358      15.35125028       0.08364829      -0.06573161       0.08314365
H       19.82866203      21.78251985      12.92375903      -0.03897550      -0.08896604       0.00906216
H       18.81001364      20.65228616      13.85721956       0.19857420       0.09348845      -0.07753460
H       20.87749785      14.80482181      13.30819679       0.07066449      -0.28236507      -0.06120774
H       21.07651876      13.36049509      12.29841268       0.01910982       0.04087944       0.12946543
H       21.87436448      13.44227837      13.88403793      -0.05253452       0.06504262      -0.06276922
H       24.13263477      13.13190480      12.85716057       0.01438317       0.02445821      -0.06539006
H       23.19574030      12.86691479      11.37744452       0.08080924      -0.01222405       0.01847130
H       24.48667585      14.06411071      11.37942073       0.04878573      -0.09488956       0.00250965
H       25.24281847      15.96302224      12.14740005       0.06358420      -0.03174367      -0.02736991
H       23.95454482      16.54736409      11.07612567      -0.00844294       0.00970886      -0.01956256
H       24.47724796      17.51614119      12.46201165       0.04798684      -0.01475688       0.01076294
H       23.06984575      15.16977078      15.06025856       0.03334966      -0.01025659       0.01298637
H       24.65726143      14.87226973      14.32798884       0.05020562      -0.02564152       0.02901765
H       24.19129232      16.50725471      14.81214933       0.02536996       0.02839695       0.02361158
H       22.47760501      19.46672178      12.34475936      -0.10368412       0.25735464       0.01189956
H       21.87099291      21.12403029      12.11480929      -0.00425018      -0.16709132      -0.02319568
H       23.68799778      21.13017522      13.81616038      -0.02318659      -0.03457043       0.09701905
H       22.83057635      19.89423405      14.75187035       0.01642525       0.14967836      -0.14115861
H       21.04516124      24.11460544      15.81411740       0.13402532       0.04360924       0.04363020
H       21.47756878      24.82057571      17.36512409       0.07005157      -0.01983749      -0.10693922
H       22.55126064      25.03154716      15.95728875      -0.08951406      -0.00171484      -0.02424389
H       20.90682076      19.33526338      20.36392412      -0.01979687      -0.07727192       0.02650796
H       19.25033820      19.97046651      20.46863888       0.25653129      -0.06606752       0.05810021
H       21.14377973      20.00663962      18.07637160      -0.28504486      -0.02017422       0.10473483
H       19.58332024      18.02520788      18.52922979       0.00402137       0.08989100      -0.03330836
H       19.33196673      18.83831453      16.96341779      -0.02200877      -0.01857360       0.29197504
H       17.45906820      20.31941029      16.70527987      -0.05108073       0.04849777       0.13693686
H       16.38746572      20.62340540      18.10407163       0.08804207      -0.00716916      -0.06189479
H       18.14716823      21.77680827      19.30923590      -0.01456101       0.02414769      -0.09541407
H       18.06590023      22.50496012      17.68305794      -0.04770784      -0.09195391       0.11428316
H       21.31426489      21.57213478      24.53344106      -0.22790559       0.03236571      -0.03065196
H       19.79792047      22.50001808      24.63598406       0.05116566      -0.06736405       0.01636738
H       19.62236853      20.55756072      26.13881761       0.02222714      -0.04972482       0.01711430
H       20.05998567      19.45694356      24.82361915       0.02353686       0.04087304       0.06020544
H       17.57523705      21.24222393      24.90257567      -0.02293716      -0.10355301      -0.03759389
H       17.58566527      19.47790097      25.08813025      -0.02245432       0.06755267      -0.02566345
H       15.52152421      15.88049179      16.39921478       0.00796490      -0.01431541      -0.03072566
H       17.07915795      17.78317083      16.34408035       0.01235995       0.02126527       0.00691375
H       16.81007060      18.26885226      20.56924956       0.01208198       0.03362035      -0.02172735
