151
Properties=species:S:1:pos:R:3:MACE_forces:R:3 energy:=T -221.330081022807=T gnorm:=T 0.009631072404=T xtb:=T 6.7.1=T (edcfbbe)=T MACE_energy=-90873.30188723514 pbc="F F F"
C        9.85304472      15.03283793      20.83567821       0.17346023      -0.06124261      -0.34499373
N       11.38799308      12.70541653      21.18945248      -0.30646579       0.05688532      -0.06487195
O       10.84991747      14.33393174      18.70218670      -0.05232193      -0.07868321       0.16972030
C       11.12425803      14.80432508      20.02044205      -0.04503184       0.22114504       0.06590502
N       14.15984663      15.27604521      18.83770532      -0.28840489       0.15014386       0.12483875
O       15.64619154      19.05268919      22.94190284       0.07490504      -0.72340793       0.16168800
C       10.40066268      15.32862656      17.80801276       0.09580818      -0.05158049       0.14520333
N       17.91603313      21.75881005      22.74741083      -0.44445683       0.43605337      -0.03595767
O       20.67063265      17.08529033      13.40382050       0.70709631       0.27160080      -0.04405018
C       12.00605064      13.76421719      20.68721429       0.27886449       0.25164092      -0.17377680
N       19.14336140      22.11846916      23.31668990      -0.85223982      -0.02500855       0.77849523
O       23.51341669      20.67097081      17.97538391      -0.28370659       0.13467823      -0.36363568
C       12.09591762      11.77318076      21.80197573       0.10969086      -0.19630436       0.13060311
N       21.43323647      22.25769798      20.46037503      -0.08579669      -0.65541480       0.40097033
O       20.96438623      24.27942933      19.58302477       0.19020897      -0.15145610       0.06685997
C       13.46925731      11.85154941      21.97326419      -0.00708408       0.03657179      -0.01995581
N       22.59007110      22.68296052      17.54145478       0.04272884       0.29795671       0.24154425
O       19.46993792      21.61646539      18.33010097      -0.12533519      -0.03772414       0.09336176
C       14.12476344      12.94987723      21.44812791      -0.22842701      -0.00831219      -0.08011632
N       22.06433596      18.79760034      13.91437363       0.17638693       0.36719058       0.22743167
O       21.34268921      22.50269746      23.10111163      -0.60614849      -0.22591877      -0.21279111
C       13.39587559      13.92923652      20.77472962      -0.09579592      -0.33799318       0.17720269
N       23.63564661      14.69784176      10.25837715       0.20042430      -0.03608114      -0.08137815
O       15.20274664      21.20651889      22.49251219       0.47554101      -0.44124880       0.21102423
C       14.10603002      15.07664844      20.20197225       0.15041037       0.21949998       0.33901852
N       17.47466348      19.69668148      18.76297194      -0.00385025      -0.02105090      -0.14231943
C       13.81828515      14.30283698      17.83073532       0.08236215      -0.50882394      -0.27768595
C       15.00767858      13.39550815      17.51825459      -0.12543447       0.17256242      -0.01260552
C       14.81501183      16.05550395      20.85994270      -0.12943092      -0.38620229       0.04621540
C       15.00173128      16.21453880      22.33461065      -0.12664537       0.04970763      -0.03516217
C       14.04980069      17.21913179      23.02325917       0.20729826       0.21717229       0.08996937
C       14.26784121      17.14048468      24.53614759       0.03473314       0.04197954      -0.19603798
C       12.59415367      16.88893192      22.69835639       0.21640921       0.19250744      -0.05539660
C       14.32350098      18.65214181      22.54873764      -0.55216725      -0.01663420      -0.13349980
C       15.95263862      20.33287966      22.87286795      -0.11020979       1.11049485      -0.36676322
C       17.35110437      20.58894793      23.40960792      -0.24080310      -0.08640513       0.21977651
C       20.26244022      22.23016491      22.58599311       1.26385839       0.26129575      -0.38861050
C       20.14022025      22.05323204      21.06996912      -0.01895601       0.14186362      -0.15732277
C       21.70857586      23.31182594      19.68725765      -0.05264699       0.47216907      -0.19742965
C       22.99206541      23.17034444      18.86522374       0.15642320       0.21452091       0.10510432
C       23.78479985      24.48408412      18.79572165      -0.01974574      -0.16668413       0.09400831
C       24.98612601      24.34228928      17.86652012      -0.27806547      -0.00136350       0.02405474
C       24.23994798      24.85418104      20.20645463      -0.26417035       0.06894367      -0.12980227
C       22.94624336      21.44215873      17.19570138       0.47449281      -0.74229454       0.15588056
C       22.63187469      20.91514969      15.78414987       0.08644036      -0.57382232       0.35534717
C       21.29630947      20.16459606      15.79993555       0.06246236       0.22308534      -0.24958394
C       20.98727082      19.62875069      14.40542349      -0.52381901      -0.04758368       0.17447233
C       21.79585927      17.59151874      13.38478120      -1.39987390      -0.40623224       0.08588900
C       22.87961577      16.90172448      12.73849469       0.85851002      -0.83504631      -0.54269149
C       23.66127713      16.21927676      12.12236058      -0.73827675       0.78628878       0.54726244
C       24.48571690      15.38443985      11.24986645       0.37964800      -0.30922985      -0.24001157
C       22.96816617      15.59546187       9.33171947      -0.03259173       0.07315504       0.00124140
C       22.66808802      13.78638093      10.84189376      -0.12968747      -0.00849166       0.12215382
C       25.52247275      16.26408641      10.53089779      -0.16098606       0.02453298       0.03529869
C       25.23890662      14.34583074      12.09637666      -0.13725081       0.02637549       0.00822933
C       23.36712981      19.42254884      13.90511704       0.37620432       0.13565605       0.03682407
C       23.72574725      19.96164564      15.29276312      -0.11937432       0.13064476      -0.01078522
C       21.76280690      23.57300495      16.75284987      -0.24465846       0.29439167      -0.37700215
C       19.58401876      20.69370787      20.63143874      -0.10033468       0.26723689      -0.46083603
C       19.75092676      20.46651701      19.11637388       0.21266544      -0.40211121       0.14178525
C       18.86735677      19.29229341      18.68132436       0.37381426       0.15303684      -0.07165147
C       17.22485297      20.80976543      17.86833808       0.14873072       0.27929373       0.04169178
C       18.09643681      21.97326763      18.33504704      -0.17395804       0.02787832      -0.17155501
C       19.14477115      22.36979083      24.75083985       0.29600031      -0.10987782       0.09257088
C       18.61890553      21.14249674      25.48885165      -0.15925503       0.20876279      -0.06901528
C       17.24524955      20.76675253      24.93766969       0.25845420      -0.22527865      -0.04684269
C       15.36333820      16.89789848      19.84737515       0.04604084      -0.18088321      -0.50155123
C       14.92557190      16.38340880      18.60082489       0.27010214       0.52858029       0.25246369
C       15.27160003      17.00054564      17.40549168      -0.07444914      -0.09552085      -0.22122547
C       16.08249605      18.11263891      17.45881719       0.11800247       0.04566389      -0.07326943
C       16.57321807      18.59768818      18.67913857      -0.07633571       0.06495116       0.27238216
C       16.21607772      17.99800731      19.87037478      -0.01143851      -0.00620420      -0.18884949
F       22.56604253      21.96021768      14.85906506      -0.03730515       0.13890649      -0.15999122
H        9.25505046      15.82629772      20.39760705      -0.03249382       0.07021077       0.00666607
H        9.27770575      14.11216946      20.86175669      -0.00575701       0.02879575       0.04321251
H       10.12046802      15.31344807      21.84921262      -0.04736395       0.05111203       0.09283557
H       11.68976099      15.74693759      19.93866816      -0.12354337      -0.27104481       0.03282629
H        9.39263847      15.67202165      18.05233991       0.02423435       0.01847360      -0.02721277
H       11.08313211      16.18718786      17.80592006      -0.05836770      -0.04107574      -0.04138422
H       10.39392976      14.86468978      16.82486891      -0.04551562       0.10899751      -0.01931386
H       11.52760926      10.93317425      22.17707123       0.07407403      -0.08362572       0.06407025
H       14.00739919      11.07568872      22.49293730       0.00754056      -0.04539894       0.02906445
H       15.19406964      13.05638277      21.54060095       0.08298021       0.01866176      -0.00142666
H       12.97191844      13.70765378      18.17909259       0.18263886       0.27903686      -0.13538637
H       13.51008182      14.83814434      16.92896674      -0.08324751      -0.08948362       0.17648210
H       15.29549701      12.83147293      18.40284640       0.00442154      -0.01355492       0.01455777
H       14.74448453      12.69625539      16.73052690       0.02271056      -0.09201934      -0.06380058
H       15.85979935      13.98868257      17.19206052       0.03413727      -0.04450273      -0.01096120
H       14.86079026      15.24466981      22.81666296       0.08375305       0.10261461       0.04247236
H       16.02607993      16.54498158      22.52023503      -0.02382714      -0.15144599       0.08733394
H       15.31408939      17.30871988      24.77875539       0.01758464      -0.00943125       0.06737738
H       13.66865207      17.89239624      25.04502091      -0.03645183       0.03239753       0.08094450
H       13.97755778      16.16112199      24.90712281      -0.01379880      -0.07183813       0.04752293
H       11.92105532      17.51372046      23.28030148      -0.06889026       0.02030538       0.04726471
H       12.39283835      17.05638583      21.64396905      -0.06124814      -0.02957730      -0.04987936
H       12.38862918      15.84706765      22.92710508      -0.04387006      -0.08173824       0.01213272
H       13.60452033      19.34970661      22.99145891       0.14137305      -0.16153560      -0.08662342
H       14.25005801      18.72728443      21.46097558      -0.02454790       0.03196814       0.19551353
H       17.98556620      19.72606612      23.18936561      -0.07145913       0.12926787       0.00143104
H       17.24846799      22.53101141      22.82364436       0.27377472      -0.21441911      -0.05786386
H       19.50253694      22.86456250      20.69842102       0.15595462      -0.29693928       0.08077423
H       22.11130821      21.51689315      20.55606448      -0.05038465       0.25675359      -0.13632660
H       23.62683149      22.39092704      19.29685948      -0.13570541       0.22340866      -0.11017419
H       23.12317452      25.27361548      18.42816859       0.05457321      -0.13491100       0.04788014
H       24.67576487      24.11867670      16.84889346       0.04313718      -0.01486633      -0.05750595
H       25.55568963      25.26682803      17.85499537       0.09142410       0.04498904      -0.02613711
H       25.63403850      23.53901755      18.21092090       0.08407898      -0.04495352      -0.00628458
H       24.91011187      24.09532114      20.60323608       0.08211289      -0.04920986       0.02938893
H       24.76349101      25.80658944      20.19175861       0.04901374       0.03061686       0.06619908
H       23.38476225      24.94152052      20.87434945       0.05455096       0.03667580       0.05016715
H       21.39463663      19.34238078      16.51035580      -0.02258089       0.06985177      -0.03809047
H       20.48994841      20.81731806      16.13736961       0.09154420      -0.06953816       0.01131769
H       20.84322719      20.47069723      13.71723642      -0.01557036      -0.13562253       0.07981262
H       20.07832674      19.02188038      14.41695564       0.24645523       0.19608591      -0.03950481
H       23.69954531      16.15446487       8.75539769      -0.07233210       0.03424852      -0.01699847
H       22.38476590      14.99232242       8.63808203       0.02455326       0.06548857       0.00493744
H       22.28586609      16.29910615       9.83347973       0.07546004      -0.05847372      -0.05964076
H       21.92028980      14.29701146      11.46876614       0.09072146      -0.06728735      -0.05488524
H       22.14702347      13.28111616      10.03065040       0.00265360      -0.00895514       0.05622443
H       23.17068828      13.03093337      11.43756437      -0.04885580      -0.02280003       0.00832574
H       25.99890808      15.68007003       9.74937079       0.04019812      -0.04710750      -0.04694127
H       25.06390755      17.14719218      10.09532373       0.03170008      -0.02747438      -0.02145594
H       26.27713383      16.59348958      11.23927176      -0.00325951       0.02743446       0.02219565
H       25.65879414      13.59329751      11.43705702       0.05471141      -0.05883841      -0.06362891
H       26.04331106      14.83026646      12.64049016       0.01244958       0.02678873       0.05796338
H       24.58546030      13.86702454      12.81961090       0.02647918      -0.02203178      -0.01918972
H       24.10909531      18.68882177      13.58618914      -0.15397071       0.20748782       0.02295163
H       23.35924792      20.25468847      13.19091021       0.07824421      -0.15524462       0.04377721
H       24.67580330      20.49392517      15.23804660      -0.05280470      -0.02471521       0.06073442
H       23.82341240      19.15450586      16.01803325       0.01243586       0.08725557      -0.10609180
H       20.95195808      23.02510373      16.28211536       0.06287190       0.07593479       0.01513981
H       21.32063205      24.30476400      17.42141988       0.03187171      -0.08502575      -0.02534467
H       22.34326049      24.08646777      15.98755273      -0.06163760      -0.02526442       0.03323950
H       20.11648261      19.89457411      21.14907579      -0.02640082      -0.06325448       0.01603842
H       18.52551688      20.63991664      20.87921624       0.28089059      -0.07631915       0.01167747
H       20.79825710      20.24292238      18.88287456      -0.25081150      -0.03968181       0.09383248
H       19.03148837      18.44026058      19.34399685       0.00639760       0.09078102      -0.10421870
H       19.13691680      18.99094812      17.65164312      -0.03132830       0.00563519       0.20117672
H       17.47516477      20.57685926      16.81741891      -0.07481309       0.03255441       0.14812234
H       16.17077752      21.08505128      17.93388604       0.09688840      -0.00359804      -0.06814382
H       17.78247457      22.28221087      19.33873234       0.00186322      -0.01913551      -0.13124906
H       18.01617303      22.82432673      17.65634046      -0.05651445      -0.09426782       0.14057499
H       20.16955314      22.60501092      25.03619498      -0.22376193       0.00242591      -0.03342349
H       18.50634273      23.23692540      24.95080556       0.04851934      -0.04643602       0.00488313
H       18.55374881      21.35956715      26.55366658       0.03713755      -0.04522795       0.02219270
H       19.31272244      20.31193424      25.34790710       0.01806107       0.04186136       0.04253483
H       16.52197507      21.55799366      25.15691624       0.03181834      -0.08648710      -0.05561571
H       16.89020704      19.83862297      25.38733790      -0.05043759       0.08373036      -0.01703436
H       14.92818955      16.62328125      16.45394491      -0.01618297      -0.01619927      -0.02046039
H       16.36525849      18.60323750      16.54009099       0.01422839       0.01871901      -0.02667188
H       16.61885588      18.38373197      20.79285841      -0.02973085       0.05508106       0.02763652
