151
Properties=species:S:1:pos:R:3:MACE_forces:R:3 energy:=T -221.331176482661=T gnorm:=T 0.006263034007=T xtb:=T 6.7.1=T (edcfbbe)=T MACE_energy=-90873.31646673549 pbc="F F F"
C        9.82906726      15.12975086      20.69171095       0.25065473      -0.00842294      -0.29839383
N       11.31751930      12.87124437      21.33837631      -0.30462671       0.04719056      -0.06496027
O       11.04085664      14.40433010      18.68691177      -0.07321985      -0.06147525       0.19873907
C       11.18082235      14.89470616      20.02114630      -0.06421576       0.20986794       0.01327757
N       14.38334342      15.00094856      18.84550812      -0.27397452       0.12196864       0.02437401
O       16.06105739      18.99285549      22.72791012      -0.11578721      -0.74191386       0.22582311
C       10.70185255      15.38853663      17.73605400       0.05569494      -0.02039786       0.10266998
N       18.77250234      21.25337063      22.41382071      -0.40345322       0.34825433      -0.04121053
O       19.26660951      18.34204614      14.16885333       0.67107884       0.14037564      -0.26403340
C       11.99505659      13.86140689      20.77673180       0.31192592       0.22356233      -0.18872533
N       20.07710289      21.39090121      22.89609315      -0.62338670      -0.08789041       0.84996036
O       22.98619485      20.93738644      16.77199220      -0.25729126       0.24005806      -0.21438221
C       11.96771250      11.93862968      22.01220829       0.06265035      -0.18382559       0.17113835
N       21.94188794      21.86577206      19.79746228      -0.01825060      -0.74951690       0.34347364
O       21.28442984      23.99004882      19.42651370       0.17445635      -0.14870025      -0.03181625
C       13.34112204      11.95568801      22.19513132       0.00278932       0.03629105      -0.02616428
N       22.57390858      23.14330635      16.87571967       0.16952111       0.26250318       0.24017402
O       19.67345916      21.34435128      17.97139726      -0.09056716      -0.03303710       0.09423117
C       14.05830365      12.98265249      21.60785755      -0.14497626      -0.01609769      -0.06444752
N       20.61634743      19.88613513      13.18759552      -0.06266602       0.28547975      -0.33163112
O       22.27278736      21.59287485      22.44904132      -0.58888060      -0.15105704      -0.12715234
C       13.39165062      13.95368824      20.86223248      -0.11266570      -0.30733564       0.21634600
N       22.70929452      14.63332196      12.31902270      -0.05221610       0.02026590      -0.04710798
O       16.04063132      21.17733088      22.22705223       0.32767254      -0.44986704       0.19307135
C       14.18471630      15.00400142      20.20851918       0.07354242       0.25518245       0.38140297
N       17.90042538      19.24615295      18.48771749      -0.20873847      -0.11430636      -0.17044089
C       14.01084078      13.93871492      17.94478306       0.03611415      -0.52772870      -0.13816497
C       15.07908610      12.84753176      17.90325666      -0.10488173       0.19246382      -0.06781215
C       14.88985224      16.02993838      20.79579766      -0.17657529      -0.36259495       0.08979933
C       14.98360241      16.32537257      22.25904835      -0.12678228       0.07089021      -0.05781030
C       14.13232154      17.50493801      22.78483971       0.22928397       0.13259513       0.09635360
C       14.14966823      17.46820797      24.31597915       0.06704501       0.00913107      -0.22088474
C       12.69178703      17.39482082      22.28758228       0.23235744       0.17150446      -0.02504530
C       14.69325641      18.84872925      22.30631090      -0.50845690       0.11052552      -0.18704782
C       16.61403367      20.18381646      22.61855893       0.14858376       1.11198537      -0.38489948
C       18.05952774      20.17365530      23.08826175      -0.15332707       0.01594811       0.19021139
C       21.11793617      21.47773588      22.05289532       1.06495658       0.23339448      -0.56601812
C       20.77733758      21.48323116      20.56114734      -0.03438671       0.20369758      -0.08445935
C       22.05859881      23.06221973      19.21801603      -0.01168484       0.45108874      -0.12886602
C       23.20114709      23.16413488      18.20058067       0.08198232       0.04693085       0.27852877
C       24.10015685      24.37995689      18.45173312       0.00248357      -0.18937913      -0.00092100
C       25.22325863      24.44473886      17.41934607      -0.30120156       0.04181818       0.06406914
C       24.68467976      24.25340632      19.85842980      -0.29480228       0.09687269      -0.07337695
C       22.54125357      21.96423028      16.25104190       0.35857658      -0.78998779      -0.10661006
C       21.93620307      21.83040799      14.83955213      -0.10857381      -0.50692656       0.17725973
C       20.44657625      21.49742212      14.98606562       0.08190853      -0.01332949      -0.17343457
C       19.83064957      20.99532532      13.67944144      -0.34928991       0.09785116       0.39868800
C       20.31998077      18.63330196      13.59791621      -1.14106949      -0.04495186       0.32992355
C       21.32205255      17.64579677      13.29720614       0.61858108      -0.95032545       0.03065376
C       22.15353793      16.78749632      13.15060040      -0.64070455       0.73879157      -0.03933975
C       23.24115494      15.82662728      12.98673588       0.31077204      -0.02332765       0.10417851
C       21.58090334      14.02887318      12.99880361      -0.17396521      -0.00344293       0.06939292
C       23.69325923      13.62733495      11.97791024       0.00119389       0.07300981       0.01320101
C       24.30281555      16.50444335      12.10414636      -0.05546369      -0.06289986       0.06178154
C       23.82845399      15.57246149      14.39318955      -0.05614261      -0.11290086      -0.15371345
C       21.95359314      20.29483229      12.82087953       0.46897445       0.06804332       0.12628771
C       22.70201567      20.74213821      14.07643345      -0.05351033       0.01842518       0.01472484
C       21.87710817      24.34521004      16.46995798      -0.23651533       0.40213439      -0.12088530
C       20.24131272      20.14029749      20.05275046      -0.12889773       0.33886357      -0.36370977
C       20.14486220      20.11818506      18.51496392       0.27866165      -0.48727479       0.03054127
C       19.25272417      18.95418011      18.06221496       0.41885770       0.20795820      -0.19566565
C       17.41862874      20.43118501      17.80337358       0.15248701       0.34910318       0.02784399
C       18.30327446      21.59668382      18.23920798      -0.22011649      -0.00107896      -0.10223000
C       20.24301422      21.54416654      24.33485266       0.24836303      -0.11771970       0.04273017
C       19.55602675      20.39374344      25.06476283      -0.14017184       0.28065405      -0.07082992
C       18.09587266      20.32140438      24.62281613       0.17301898      -0.27024287      -0.13036446
C       15.58027127      16.69210230      19.73733388      -0.00581706      -0.21058538      -0.46266664
C       15.24437520      16.01536647      18.53675440       0.26354417       0.51183453       0.20407439
C       15.77445616      16.40155867      17.31027512      -0.03115905      -0.08906016      -0.21240210
C       16.64507860      17.46875183      17.28373953       0.12350955       0.05996860      -0.12725067
C       16.99960399      18.13666448      18.46468369       0.04134983       0.13052239       0.33696913
C       16.48338976      17.75104484      19.68340385       0.00328705      -0.02332886      -0.16512304
F       22.07562598      23.01570724      14.10744009      -0.00895290       0.16226013      -0.16961856
H        9.27957665      15.91354742      20.17887307      -0.02018434       0.07141823       0.00050213
H        9.25718940      14.20824437      20.66761454      -0.02930403       0.00312931       0.05763301
H        9.97962912      15.42718859      21.72545744      -0.05100330       0.02749383       0.05837450
H       11.75400944      15.83554086      19.98524277      -0.12313013      -0.27027377       0.01092565
H        9.69602837      15.78515126      17.90130242       0.06137542       0.00248167      -0.04787871
H       11.42396430      16.21361947      17.75723791      -0.06095924      -0.03727229      -0.04297703
H       10.73968326      14.89509726      16.76695125      -0.03887792       0.12138449       0.00842779
H       11.34809285      11.15473805      22.42991031       0.11571780      -0.04597576       0.05351964
H       13.83430728      11.18864988      22.76991704      -0.00217780      -0.04248986       0.02917309
H       15.13301385      13.03787738      21.70819995       0.00792891       0.01407185      -0.01042167
H       13.05599914      13.51991257      18.26865590       0.23479136       0.20675050      -0.17064107
H       13.87639506      14.36977990      16.95083979      -0.10923773      -0.03880775       0.14310098
H       16.03992207      13.26899695      17.61633811       0.04428991      -0.03641328      -0.01121539
H       15.18088712      12.38261755      18.88085523       0.00768422      -0.02638035       0.01789674
H       14.79974408      12.08505658      17.18248841       0.02554589      -0.10853895      -0.04243931
H       14.67400476      15.43224210      22.80562210       0.09192559       0.08381837       0.05334993
H       16.02670599      16.53313045      22.50458579      -0.04517379      -0.14102078       0.10656428
H       15.17134867      17.50444503      24.68564243       0.02513586      -0.01369504       0.07244037
H       13.60276081      18.31513862      24.72281815      -0.03974328       0.06275768       0.07087613
H       13.68191270      16.55417030      24.67395412      -0.01228981      -0.04705345       0.04792684
H       12.29376639      16.41015617      22.52087050      -0.05083656      -0.04637419      -0.00483735
H       12.06397385      18.14522100      22.76347566      -0.05917175       0.01507729       0.02665182
H       12.64780517      17.54302498      21.21075207      -0.04987967      -0.04704981      -0.01548280
H       14.11452033      19.68310678      22.71655658       0.09184815      -0.20584590      -0.08666149
H       14.66429848      18.91757461      21.21490264      -0.00024424       0.01852638       0.19664872
H       18.52367425      19.22364250      22.80371809      -0.08080648       0.15688337       0.03935754
H       18.24540047      22.12169677      22.53016422       0.18314903      -0.21669228      -0.02809015
H       20.03706376      22.27378413      20.39825082       0.19171415      -0.29886407      -0.00020967
H       22.63286871      21.15209213      19.62561547      -0.08371568       0.28799520      -0.13138464
H       23.81309920      22.25942916      18.25610996      -0.10508729       0.26879086       0.00419856
H       23.49649514      25.28947479      18.40522148       0.02920583      -0.11553895       0.00278670
H       25.83509903      23.54699803      17.47688914       0.06759491      -0.04776054      -0.02009302
H       24.83166685      24.52542118      16.40863996       0.03163747       0.00370066      -0.07490837
H       25.85547731      25.30651414      17.61548624       0.07503875       0.02844126      -0.04117203
H       25.26716526      23.33956067      19.94583308       0.09022140      -0.06843077       0.01112802
H       25.33109723      25.09806832      20.07308848       0.08175455       0.06045931       0.07187518
H       23.89346412      24.22233074      20.60526744       0.06898384       0.02517975       0.04977580
H       20.36404114      20.71703889      15.74388151      -0.04855318       0.13539585      -0.10673364
H       19.90185015      22.36750358      15.35125028       0.09033072      -0.08709566       0.07937306
H       19.82866203      21.78251985      12.92375903      -0.04186340      -0.09081867       0.03226013
H       18.81001364      20.65228616      13.85721956       0.20732005       0.10985593      -0.09098651
H       20.87749785      14.80482181      13.30819679       0.05260435      -0.22000731      -0.04197900
H       21.07651876      13.36049509      12.29841268       0.00622570       0.03297692       0.13023822
H       21.87436448      13.44227837      13.88403793      -0.04947295       0.06436669      -0.07370292
H       24.13263477      13.13190480      12.85716057       0.00120897       0.01637165      -0.06699475
H       23.19574030      12.86691479      11.37744452       0.08232947      -0.01192719       0.01941804
H       24.48667585      14.06411071      11.37942073       0.05539068      -0.08168673      -0.00819422
H       25.24281847      15.96302224      12.14740005       0.06042185      -0.02699850      -0.02027356
H       23.95454482      16.54736409      11.07612567      -0.00719511       0.01147152      -0.02082524
H       24.47724796      17.51614119      12.46201165       0.05083317      -0.01168083      -0.00469800
H       23.06984575      15.16977078      15.06025856       0.03902210      -0.00182431       0.01154056
H       24.65726143      14.87226973      14.32798884       0.05124405      -0.03107526       0.03145564
H       24.19129232      16.50725471      14.81214933       0.02753234      -0.00366424       0.03772999
H       22.47760501      19.46672178      12.34475936      -0.10146094       0.19782728       0.01526904
H       21.87099291      21.12403029      12.11480929       0.02734895      -0.15365791      -0.00223144
H       23.68799778      21.13017522      13.81616038      -0.03969042      -0.02560171       0.09215021
H       22.83057635      19.89423405      14.75187035       0.00387981       0.13708526      -0.16481641
H       21.04516124      24.11460544      15.81411740       0.13048428       0.05548573       0.04808392
H       21.47756878      24.82057571      17.36512409       0.07322342      -0.05541455      -0.13660237
H       22.55126064      25.03154716      15.95728875      -0.08963999      -0.00434503      -0.01259840
H       20.90682076      19.33526338      20.36392412      -0.00392964      -0.07271374       0.02718133
H       19.25033820      19.97046651      20.46863888       0.22286445      -0.03728451       0.02792869
H       21.14377973      20.00663962      18.07637160      -0.25283085      -0.02085189       0.13912870
H       19.58332024      18.02520788      18.52922979       0.01080569       0.08166430      -0.04384859
H       19.33196673      18.83831453      16.96341779      -0.01141007      -0.02423647       0.27236835
H       17.45906820      20.31941029      16.70527987      -0.04197509       0.01945149       0.13278547
H       16.38746572      20.62340540      18.10407163       0.08297558       0.00587270      -0.05973462
H       18.14716823      21.77680827      19.30923590      -0.01177514       0.01761725      -0.10900096
H       18.06590023      22.50496012      17.68305794      -0.04964342      -0.08239283       0.13062831
H       21.31426489      21.57213478      24.53344106      -0.22428820       0.03077525      -0.02445963
H       19.79792047      22.50001808      24.63598406       0.05743748      -0.07360741       0.00148297
H       19.62236853      20.55756072      26.13881761       0.02783009      -0.05660167       0.01892731
H       20.05998567      19.45694356      24.82361915       0.03878609       0.01847685       0.05208033
H       17.57523705      21.24222393      24.90257567      -0.01728272      -0.10061675      -0.03653596
H       17.58566527      19.47790097      25.08813025      -0.01736095       0.06707044      -0.01143429
H       15.52152421      15.88049179      16.39921478      -0.00430639      -0.01748618      -0.02511141
H       17.07915795      17.78317083      16.34408035       0.00927674       0.00543739       0.00358201
H       16.81007060      18.26885226      20.56924956      -0.00893163       0.02216831       0.01015069
