151
 energy: -221.020825065548 gnorm: 0.359947287721 xtb: 6.7.1 (edcfbbe)
C           -7.90300000000000       -4.35000000000000        4.35900000000000
N           -6.03800000000000       -6.56800000000000        4.60400000000000
O           -7.61000000000000       -5.22200000000000        2.15500000000000
C           -6.80100000000000       -4.60100000000000        3.25700000000000
N           -4.22400000000000       -4.02400000000000        1.33800000000000
O           -2.07800000000000        0.31900000000000        4.86900000000000
C           -8.14600000000000       -4.20200000000000        1.28800000000000
N           -0.12300000000000        3.44600000000000        3.74700000000000
O            1.63400000000000       -1.44400000000000       -4.33400000000000
C           -5.62200000000000       -5.53600000000000        3.82800000000000
N            1.21500000000000        3.84600000000000        3.82300000000000
O            4.16300000000000        2.86000000000000       -2.78500000000000
C           -5.07600000000000       -7.42300000000000        5.02600000000000
N            2.25300000000000        4.02300000000000        0.23000000000000
O            1.67100000000000        6.12300000000000       -0.10900000000000
C           -3.69800000000000       -7.26200000000000        4.70400000000000
N            2.93100000000000        4.80100000000000       -2.84100000000000
O           -0.89600000000000        3.35100000000000       -0.43800000000000
C           -3.27900000000000       -6.14500000000000        3.99000000000000
N            1.94800000000000        0.31500000000000       -5.72300000000000
O            3.25300000000000        3.34100000000000        2.80000000000000
C           -4.26500000000000       -5.26100000000000        3.58500000000000
N            6.48000000000000       -2.23300000000000       -7.18300000000000
O           -2.79000000000000        2.36200000000000        4.15600000000000
C           -3.81500000000000       -4.13600000000000        2.67300000000000
N           -1.95600000000000        0.80300000000000        0.02900000000000
C           -4.88000000000000       -5.10800000000000        0.50200000000000
C           -3.72600000000000       -5.95200000000000       -0.13500000000000
C           -3.10000000000000       -2.99400000000000        2.96600000000000
C           -2.48200000000000       -2.59400000000000        4.34500000000000
C           -3.40700000000000       -1.79400000000000        5.22300000000000
C           -2.77300000000000       -1.89900000000000        6.70600000000000
C           -4.83400000000000       -2.30900000000000        5.27900000000000
C           -3.46400000000000       -0.17100000000000        4.75900000000000
C           -1.84400000000000        1.61600000000000        4.39000000000000
C           -0.42600000000000        2.13500000000000        4.39600000000000
C            2.03400000000000        3.47600000000000        2.76500000000000
C            1.35200000000000        3.63200000000000        1.34100000000000
C            2.49500000000000        5.22800000000000       -0.27600000000000
C            3.42400000000000        5.28100000000000       -1.52500000000000
C            4.07200000000000        6.76900000000000       -1.64800000000000
C            5.07000000000000        6.89600000000000       -2.81700000000000
C            4.99200000000000        6.93500000000000       -0.35300000000000
C            3.39800000000000        3.61300000000000       -3.36800000000000
C            2.71400000000000        2.88900000000000       -4.63900000000000
C            1.59600000000000        2.01600000000000       -4.09500000000000
C            0.90500000000000        1.19800000000000       -5.17300000000000
C            2.26700000000000       -1.03100000000000       -5.27300000000000
C            3.51700000000000       -1.61800000000000       -5.52000000000000
C            4.62800000000000       -2.08600000000000       -5.67100000000000
C            5.90300000000000       -2.71800000000000       -5.86900000000000
C            7.64200000000000       -3.00600000000000       -7.64400000000000
C            6.63700000000000       -0.74200000000000       -7.35300000000000
C            6.68400000000000       -2.20800000000000       -4.67400000000000
C            5.81600000000000       -4.20300000000000       -5.73700000000000
C            2.99900000000000        1.12300000000000       -6.46500000000000
C            3.68700000000000        1.93900000000000       -5.45500000000000
C            1.92600000000000        5.66700000000000       -3.68900000000000
C            0.75600000000000        2.21500000000000        0.93700000000000
C            0.09100000000000        2.26600000000000       -0.40000000000000
C           -0.72200000000000        0.83700000000000       -0.66600000000000
C           -2.80600000000000        2.01300000000000        0.21800000000000
C           -1.99700000000000        3.21200000000000        0.49400000000000
C            1.80800000000000        3.93100000000000        5.16000000000000
C            1.65600000000000        2.56100000000000        5.83300000000000
C            0.20600000000000        2.15000000000000        5.83800000000000
C           -3.01200000000000       -2.28400000000000        1.75200000000000
C           -3.68700000000000       -2.96500000000000        0.78400000000000
C           -3.90500000000000       -2.36500000000000       -0.43300000000000
C           -3.39800000000000       -1.07200000000000       -0.63600000000000
C           -2.58000000000000       -0.39300000000000        0.30200000000000
C           -2.32500000000000       -1.05900000000000        1.48100000000000
F            2.29000000000000        3.90600000000000       -5.48700000000000
H           -8.51600000000000       -3.50700000000000        4.02500000000000
H           -8.52900000000000       -5.24200000000000        4.45400000000000
H           -7.49000000000000       -4.20200000000000        5.36100000000000
H           -6.27500000000000       -3.73400000000000        2.84600000000000
H           -8.78400000000000       -4.72600000000000        0.57000000000000
H           -8.68300000000000       -3.41300000000000        1.82400000000000
H           -7.30600000000000       -3.65900000000000        0.84600000000000
H           -5.37600000000000       -8.16000000000000        5.76500000000000
H           -3.01200000000000       -8.01700000000000        5.07600000000000
H           -2.22500000000000       -6.02600000000000        3.75900000000000
H           -5.48900000000000       -5.75800000000000        1.13700000000000
H           -5.56900000000000       -4.70900000000000       -0.24800000000000
H           -2.93400000000000       -6.08400000000000        0.60800000000000
H           -4.07500000000000       -6.94300000000000       -0.44100000000000
H           -3.39500000000000       -5.51600000000000       -1.08200000000000
H           -2.26000000000000       -3.53500000000000        4.85600000000000
H           -1.50100000000000       -2.11700000000000        4.26900000000000
H           -1.73000000000000       -2.22400000000000        6.77600000000000
H           -2.82700000000000       -0.89900000000000        7.14500000000000
H           -3.27900000000000       -2.68700000000000        7.27100000000000
H           -4.88000000000000       -3.32600000000000        5.68000000000000
H           -5.30500000000000       -1.54500000000000        5.90400000000000
H           -5.41300000000000       -2.27600000000000        4.35200000000000
H           -3.91800000000000        0.44800000000000        5.53800000000000
H           -3.82600000000000        0.03200000000000        3.74600000000000
H            0.23300000000000        1.53100000000000        3.76600000000000
H           -0.74300000000000        4.09200000000000        4.23300000000000
H            0.48500000000000        4.29400000000000        1.42000000000000
H            3.04800000000000        3.41100000000000        0.04900000000000
H            4.22300000000000        4.57500000000000       -1.27800000000000
H            3.21600000000000        7.45000000000000       -1.67500000000000
H            5.27800000000000        7.93500000000000       -3.09200000000000
H            6.06800000000000        6.45200000000000       -2.77000000000000
H            4.52900000000000        6.44600000000000       -3.65500000000000
H            5.78800000000000        6.18500000000000       -0.36200000000000
H            5.51200000000000        7.88800000000000       -0.48700000000000
H            4.44800000000000        6.90700000000000        0.59600000000000
H            2.00500000000000        1.40800000000000       -3.28300000000000
H            0.86200000000000        2.63400000000000       -3.57100000000000
H            0.48000000000000        1.80200000000000       -5.98000000000000
H            0.10800000000000        0.68900000000000       -4.62200000000000
H            8.56300000000000       -2.86200000000000       -7.07100000000000
H            7.47200000000000       -4.08700000000000       -7.64900000000000
H            7.82100000000000       -2.71700000000000       -8.68300000000000
H            7.52500000000000       -0.43900000000000       -6.79100000000000
H            6.94700000000000       -0.56000000000000       -8.38600000000000
H            5.73500000000000       -0.13300000000000       -7.24300000000000
H            6.76100000000000       -1.11700000000000       -4.65000000000000
H            6.40900000000000       -2.66300000000000       -3.71700000000000
H            7.65600000000000       -2.64200000000000       -4.92400000000000
H            5.02000000000000       -4.44500000000000       -5.02700000000000
H            5.53800000000000       -4.59900000000000       -6.71800000000000
H            6.73300000000000       -4.73500000000000       -5.46600000000000
H            3.65600000000000        0.50700000000000       -7.08600000000000
H            2.45200000000000        1.67600000000000       -7.23500000000000
H            4.49500000000000        2.54400000000000       -5.87500000000000
H            4.18500000000000        1.24100000000000       -4.77600000000000
H            0.92100000000000        5.30000000000000       -3.91600000000000
H            1.77500000000000        6.60100000000000       -3.14000000000000
H            2.44500000000000        6.03200000000000       -4.58000000000000
H            1.58300000000000        1.50500000000000        0.83500000000000
H            0.12300000000000        1.74400000000000        1.69500000000000
H            0.82200000000000        2.38600000000000       -1.20500000000000
H           -0.08900000000000       -0.05600000000000       -0.64800000000000
H           -1.01200000000000        0.81900000000000       -1.72100000000000
H           -3.28900000000000        2.13200000000000       -0.75700000000000
H           -3.68100000000000        1.91000000000000        0.86700000000000
H           -1.60300000000000        3.17100000000000        1.51400000000000
H           -2.58100000000000        4.13700000000000        0.53100000000000
H            2.84400000000000        4.27100000000000        5.06800000000000
H            1.22300000000000        4.69000000000000        5.68800000000000
H            2.01300000000000        2.68400000000000        6.86000000000000
H            2.11700000000000        1.79200000000000        5.20800000000000
H           -0.34300000000000        2.81700000000000        6.50800000000000
H            0.25000000000000        1.12600000000000        6.21900000000000
H           -4.52000000000000       -2.77200000000000       -1.22900000000000
H           -3.64900000000000       -0.61600000000000       -1.58900000000000
H           -1.68700000000000       -0.62900000000000        2.24700000000000
151
 energy: -221.168033128250 gnorm: 0.193761964003 xtb: 6.7.1 (edcfbbe)
C           -7.88811446036841       -4.35020549218600        4.35855906204686
N           -6.01623129955764       -6.56457079764591        4.59412675376304
O           -7.58084547696302       -5.20912651204500        2.15867836731026
C           -6.80550765067757       -4.62278509763825        3.27325707347608
N           -4.23866326176968       -4.05186123054368        1.33664087923123
O           -2.04730348473670        0.33938053904426        4.83409211158740
C           -8.13043891497748       -4.20251894181110        1.29834007223724
N           -0.14278787832399        3.44606768530721        3.74581573462687
O            1.58813820798846       -1.46305917337704       -4.33523166424468
C           -5.63871917457217       -5.53965381620616        3.81241595982391
N            1.21047305387861        3.82773001618134        3.80750266875683
O            4.17507515851066        2.88256487360052       -2.76641521872468
C           -5.06715856751581       -7.39709463486185        5.03478428540394
N            2.26349027073400        4.01217988701275        0.25022660774597
O            1.67315383108651        6.15202834631816       -0.09647842665047
C           -3.70792745669452       -7.25759139474488        4.71635650562111
N            2.90664465713648        4.79498554625339       -2.85442171527324
O           -0.89519616170182        3.34200270227077       -0.44200285628306
C           -3.29610336467187       -6.15075795025297        3.98987609243702
N            1.95576765426822        0.30332766613263       -5.74379489285570
O            3.23849917298506        3.34392929901077        2.81203939012086
C           -4.28051666643526       -5.26110081715525        3.55029216569074
N            6.46933048591694       -2.24114529227973       -7.18508001391468
O           -2.78366613682230        2.35584127236163        4.14540124701921
C           -3.83663774337218       -4.13302408026914        2.67320005541823
N           -1.95445338495083        0.80894585164636        0.06343618731417
C           -4.86302893391204       -5.12055042112268        0.51313858185761
C           -3.73684488098133       -5.95586581650895       -0.13915198263747
C           -3.08839508778703       -3.00632488038809        2.97743833032173
C           -2.48664508786997       -2.61034053452241        4.33013072317561
C           -3.38768854461498       -1.77173449405200        5.22555577492722
C           -2.78058784418773       -1.88840006127643        6.69112308010459
C           -4.82772950347979       -2.28482830920493        5.28447057885013
C           -3.41988320322019       -0.18778688035625        4.78183768613340
C           -1.84164861666629        1.63450906163066        4.41388165746752
C           -0.39613838263448        2.12579797620548        4.40073382137892
C            2.02880653653078        3.51761433609468        2.74140365692281
C            1.34617276751452        3.60858260715216        1.33462379856237
C            2.43472575254355        5.21482038596744       -0.33971991801513
C            3.43993732523204        5.28043069940484       -1.54601105953449
C            4.09852799815559        6.73489840542347       -1.62687394651232
C            5.04738646605705        6.89347364190932       -2.83198182231893
C            4.98819598712793        6.94206502959563       -0.36099097113019
C            3.36670792273786        3.59990718652891       -3.35220691350165
C            2.72941897377645        2.89828292939455       -4.63490484618421
C            1.59300576249568        2.03797487184983       -4.08907972434979
C            0.92809750133428        1.18142046895637       -5.16631533300372
C            2.28304183732105       -0.97169742055894       -5.22290366506410
C            3.51719829047110       -1.59525889246327       -5.54417328384748
C            4.60778920083304       -2.08130066232963       -5.70381189355918
C            5.90270169173370       -2.70062125839587       -5.87049816057622
C            7.63591892278697       -2.99774003042160       -7.64419954088613
C            6.65439820503437       -0.76963871564366       -7.36022010647947
C            6.71777137082456       -2.21115976971068       -4.67617710563393
C            5.80382270520347       -4.20876327345110       -5.75609559426859
C            2.97499218252695        1.12027302858822       -6.46500034279512
C            3.69497139216164        1.95485890592923       -5.44171173297534
C            1.94909845012116        5.67966427238236       -3.66422769662759
C            0.77194917076646        2.20294938821451        0.93587975764694
C            0.05229044429755        2.24294828302935       -0.39302443461923
C           -0.73682222767383        0.86530487545340       -0.68981738684413
C           -2.80846389578134        2.00713580606187        0.18304554004025
C           -1.97791182272949        3.21110579493950        0.50200350733965
C            1.79916102024854        3.92741321324105        5.14663917940646
C            1.65512437226366        2.56757262447121        5.82481029429147
C            0.19902620888106        2.13881588736475        5.84474350824323
C           -2.99252122196450       -2.27035622575725        1.77172574242283
C           -3.70254188303608       -2.95214113649047        0.78544254473849
C           -3.91245196151690       -2.34612022320933       -0.44349369379043
C           -3.39497890050728       -1.07671818323642       -0.64338563035842
C           -2.57223048815997       -0.41825627301898        0.30572044987947
C           -2.33137323345869       -1.06096302106396        1.49685390179182
F            2.28026525955236        3.88433391903353       -5.50654974080577
H           -8.50715252437464       -3.51155021049159        4.03670049053887
H           -8.51827711003048       -5.23810120444453        4.44169338191180
H           -7.47947811379584       -4.18785759033478        5.35289892028289
H           -6.29713936312257       -3.73739414098244        2.86417684128523
H           -8.76928975766447       -4.72092701653138        0.58041904568501
H           -8.69432851208095       -3.43062409843043        1.83289535104993
H           -7.30504449102793       -3.66303013627764        0.82668818712267
H           -5.38083015417986       -8.15904011438220        5.74349385045339
H           -3.01643777364455       -8.01133962609964        5.07330992946313
H           -2.24182056574894       -6.02157677197265        3.76097486809419
H           -5.48084042780862       -5.75707882210083        1.14824554179995
H           -5.54361736774171       -4.70045398560538       -0.23724998282154
H           -2.93763569883397       -6.07997313645031        0.59247013194068
H           -4.08617449278883       -6.94553200716540       -0.43163681817979
H           -3.38502400832470       -5.50295312247288       -1.06650028271300
H           -2.27026014874050       -3.54293918180189        4.85708937933648
H           -1.51408065889869       -2.11467553167724        4.24474133399542
H           -1.73522727006759       -2.20832565365294        6.74374735993308
H           -2.83561670272258       -0.90878905476113        7.15801395535303
H           -3.29529088443633       -2.66354705196662        7.26348583230673
H           -4.87717380580487       -3.30368919196152        5.67901321749667
H           -5.32709310561293       -1.56060487399082        5.92374370395143
H           -5.38791652140047       -2.27272100636322        4.34694066826331
H           -3.93726929494737        0.42441529362979        5.53117862306027
H           -3.81886844734787        0.00592391648665        3.77378929482662
H            0.23395581359159        1.48979954790986        3.77383862615494
H           -0.74108500025958        4.11164894557765        4.22909833635026
H            0.50083726263909        4.29955828901899        1.40842741530781
H            3.04337941129093        3.39141837946882        0.05872338761740
H            4.23448781970222        4.57178539376319       -1.29209281421054
H            3.25178999899682        7.43878514867943       -1.66751427548002
H            5.25858926129442        7.93680619841167       -3.08063776652260
H            6.04010291027603        6.43999337596651       -2.74743865642846
H            4.53755201028762        6.44501779327455       -3.67883303151734
H            5.77215082701526        6.18231286034230       -0.36023727219919
H            5.50313028930639        7.89476000691926       -0.47607781818978
H            4.44546215104966        6.90906459749228        0.58331887722392
H            2.00990940917409        1.40337802501988       -3.29834706638605
H            0.84997257062120        2.65063674838667       -3.57578789388550
H            0.49411126336574        1.79177853232372       -5.96898641954655
H            0.12050831956360        0.66197310558819       -4.64167496464136
H            8.55918598987102       -2.84709533578260       -7.06770009949122
H            7.45711484463378       -4.07508719623780       -7.64614297651908
H            7.82276777973376       -2.71250625226315       -8.68048578740582
H            7.51386099909427       -0.42731382175193       -6.77465549484047
H            6.94468874861031       -0.57862577822770       -8.39654266511357
H            5.75022213355223       -0.16816104728890       -7.21763975322230
H            6.76175273478549       -1.12395896459121       -4.63861400817573
H            6.39944022970206       -2.64897780087643       -3.72771203550878
H            7.69473254586962       -2.62877662073893       -4.90266542943622
H            5.02486455421686       -4.44906054198839       -5.03140801929964
H            5.52201825792802       -4.61101971616240       -6.72520866423324
H            6.72819989560406       -4.71532384014078       -5.46339690972977
H            3.65184012456627        0.49441563179148       -7.05852641309549
H            2.44156382773266        1.69379834548556       -7.22844617447033
H            4.49379735869533        2.55378991855706       -5.88129353320167
H            4.18178383833882        1.25428782274218       -4.75811253341686
H            0.95725107043319        5.27632667198569       -3.89760342083802
H            1.77656075286864        6.60031285014885       -3.11262927105583
H            2.44641359298222        6.01152012621049       -4.57871037067395
H            1.59983029343322        1.50087431716037        0.83490865314673
H            0.12147664606266        1.76757532355859        1.69737545096145
H            0.78855737360826        2.39321105283182       -1.19611428973960
H           -0.09647389373353       -0.02915689940121       -0.60827497493082
H           -1.00490797648676        0.84511912760882       -1.75514175911504
H           -3.29846218659088        2.14576830061298       -0.78702477314853
H           -3.64979932602826        1.89034535755198        0.87917343125907
H           -1.58882993001628        3.16042920719250        1.52401404174001
H           -2.57108124195149        4.13368998658631        0.50235520819135
H            2.83623089835179        4.26224951981971        5.06171539372700
H            1.22417085850060        4.68688319146959        5.68702384382774
H            2.01954031492095        2.66652057254033        6.84894395256957
H            2.14869106554328        1.80290504684824        5.22202021866560
H           -0.35903989711373        2.80774052684567        6.50226467385017
H            0.22089285963373        1.12071353699319        6.22871404840659
H           -4.51618320224339       -2.77428591930157       -1.23073796795614
H           -3.64092177018915       -0.60704075378762       -1.58697255877954
H           -1.68963668843260       -0.62549414410504        2.24885745810123
151
 energy: -221.243916052053 gnorm: 0.077243749502 xtb: 6.7.1 (edcfbbe)
C           -7.86980670049428       -4.35630013407353        4.35817410652415
N           -6.00021195170380       -6.55764686321576        4.58335859096734
O           -7.54508359039260       -5.20149014522710        2.16186398890870
C           -6.80720707568941       -4.63810649697712        3.28187838882183
N           -4.25042075925298       -4.07023484963529        1.33337785881550
O           -2.01821036602403        0.35813375378704        4.80522477678907
C           -8.10952115517490       -4.20679506092106        1.31242800739829
N           -0.16224422598195        3.43320741194789        3.74736238699513
O            1.56339611336021       -1.45599628520855       -4.34327608360864
C           -5.65818689834196       -5.53933808102012        3.79645005955878
N            1.20428220206717        3.80066623916722        3.78558169386477
O            4.17471817959637        2.90954122224931       -2.74762868988893
C           -5.06540848432907       -7.37666073821987        5.03661953273110
N            2.28332414412895        4.01177138029047        0.26468798994730
O            1.67431220197779        6.15988334085755       -0.10703764554138
C           -3.71932339775096       -7.25131659523879        4.72767519832764
N            2.88915214522246        4.79240736187705       -2.86757578043463
O           -0.89040283250370        3.33260322388728       -0.43893517866379
C           -3.31939793036841       -6.15310077065985        3.98708197181781
N            1.96603399839699        0.29520398558661       -5.75051329920941
O            3.21984561291122        3.36100387430999        2.82127417555732
C           -4.29679684980021       -5.25927832073145        3.51491394844098
N            6.46312661391171       -2.24603477267381       -7.18947742010484
O           -2.77864452614762        2.35426914998862        4.14278716471422
C           -3.85736796343776       -4.13084992105305        2.66952109318412
N           -1.94353470824486        0.81850239742184        0.11471908397836
C           -4.84535033135809       -5.12543009542584        0.52760409842437
C           -3.74607529983396       -5.95892544910217       -0.13868653742784
C           -3.08465707784929       -3.02205888300212        2.98821139712817
C           -2.49521729704209       -2.62908783258273        4.31605270967580
C           -3.36698054239612       -1.74230666308149        5.23283031375654
C           -2.78311982286172       -1.87424293233940        6.67387349674512
C           -4.81935468162215       -2.25303960259134        5.28775159292402
C           -3.37239804645479       -0.21089865301600        4.80252799967186
C           -1.84547390010077        1.63582632904446        4.41132808862404
C           -0.37689155626685        2.11409603635392        4.40929707074590
C            2.01430135014281        3.53630285054911        2.71351845894298
C            1.34086120300105        3.59074368372415        1.31713461013565
C            2.39738954591661        5.20960970696303       -0.37456524962946
C            3.44597427667455        5.27515541803374       -1.55692862269651
C            4.10608833609709        6.70137609761353       -1.61831731691460
C            5.02554665258182        6.88502358267376       -2.84297284758617
C            4.97956876021360        6.93464443654780       -0.37943355462442
C            3.35535963172315        3.60417433366678       -3.35217456961914
C            2.74030041276226        2.90770964848945       -4.62249881867922
C            1.59128161136462        2.04984562761831       -4.07998447431919
C            0.94879613986604        1.16627264530169       -5.15726900558957
C            2.27617972683101       -0.91884338332345       -5.20172173125677
C            3.51055313712312       -1.55538630259616       -5.57832435299624
C            4.59116853128490       -2.07661213077595       -5.71896819245734
C            5.90666133135147       -2.68090158027428       -5.87790439128224
C            7.62929206296403       -2.99195865599933       -7.64437979360947
C            6.66853481234951       -0.79997581320795       -7.36470752587185
C            6.74739085077112       -2.21336463382769       -4.68104301869629
C            5.79015771456393       -4.21043966838030       -5.77564972453175
C            2.95452811063033        1.11329258079608       -6.45226541568817
C            3.70013840297405        1.97300838158364       -5.42025383476356
C            1.97921346428040        5.67971184278772       -3.63646529390335
C            0.78399510702760        2.19364788708962        0.93477936675013
C            0.01664930662375        2.22406710207334       -0.39363746475703
C           -0.74990579702581        0.90142306359319       -0.70237101631777
C           -2.80714963935111        1.99534068307034        0.15118910754806
C           -1.96241937412733        3.20895700341491        0.50293613836089
C            1.78597976684397        3.92045340495630        5.12792864693498
C            1.65489923926372        2.57189997353709        5.81993781422572
C            0.19445194077980        2.12710701333394        5.84601571473606
C           -2.98053011897252       -2.26243362758846        1.78976675618951
C           -3.71950147153853       -2.93601288009027        0.78949782231985
C           -3.91855966348444       -2.32808004733467       -0.44816155871533
C           -3.38701514462335       -1.07660443924572       -0.65210138554264
C           -2.56192096279375       -0.44129008792772        0.30554629831421
C           -2.33928943380599       -1.06379633838214        1.51084603962471
F            2.26924763052891        3.86255133641731       -5.52033055963241
H           -8.49223877199502       -3.51717739467385        4.04926732032051
H           -8.50738456016186       -5.23734122383715        4.43411440210596
H           -7.46092380318837       -4.17306003853077        5.34428421017757
H           -6.31660143844502       -3.73000191281619        2.88958298460509
H           -8.74923639638380       -4.72100453549191        0.59443246992893
H           -8.70190564798309       -3.45482856750999        1.84672840231492