151
 energy: -221.318412043685 gnorm: 0.009681032335 xtb: 6.7.1 (edcfbbe)
C           10.10718013604425       15.39879831503602       23.39698934557732
N           11.65059572996575       13.06556161953779       23.82910438599139
O           10.47301709334726       14.08894565611691       21.34403431220590
C           11.09638018804982       14.88370721840447       22.35181588184534
N           13.87000938942923       15.10943891879840       20.47028060241739
O           16.32675923795901       19.39252830304136       23.68003606981682
C            9.62985199294987       14.79650589573061       20.46183843762530
N           18.49488670542390       22.16166200521831       22.88576912844299
O           24.27177755737719       16.53106866324514       14.24527108993755
C           12.13012903772097       13.98181119675929       22.99865333400367
N           19.82119603521006       22.50377482533576       23.18776226553207
O           23.70676641578828       21.22242917683645       17.94074782976258
C           12.48233863340737       12.23144713821985       24.42569515429698
N           21.67987682743929       22.65544630704688       20.03917634493805
O           20.69402618751103       24.49311570540691       19.16868319621022
C           13.85496330574158       12.26140865747616       24.23014344104013
N           22.35994516027620       22.83161549737423       17.12159046343894
O           19.02222206002651       21.44865009320884       18.82589921506125
C           14.36390278497109       13.21201807118674       23.36506735524524
N           23.08063838544093       18.46098007971548       14.21993169003008
O           21.96473163138295       22.96253486954302       22.69408278079050
C           13.49831027853152       14.09890384107473       22.72208885291534
N           26.69017966371436       17.20520317503449        9.84170724992074
O           15.92372399852873       21.27845152019529       22.53283560286581
C           14.07933544997299       15.10993967785252       21.83212664702899
N           17.39816494753151       19.12198461081835       19.01333531790509
C           13.22887060699809       14.05923896054602       19.71886523132898
C           14.22493000342737       12.96698161848380       19.33200183340026
C           14.95133485211182       16.11795993181837       22.18188756256613
C           15.44234709891890       16.48365507640358       23.54592279312517
C           14.69767845914753       17.65336348543475       24.23226970497176
C           15.17698443012437       17.75165364188862       25.68325365289053
C           13.18992231347181       17.40100752173068       24.20567461454083
C           14.95373330730409       18.98880598957953       23.52312052767446
C           16.66309903315480       20.57588837321423       23.18974630265670
C           18.08315430291742       20.94994667101578       23.58482787153928
C           20.84872152902026       22.58522509794821       22.33465146593582
C           20.58185795237640       22.21773276161002       20.86743708126511
C           21.62359793906436       23.70314955701332       19.20925156062156
C           22.78679647155985       23.71776741669768       18.20999927549423
C           23.18983659671526       25.12752754628733       17.76343645171961
C           24.13554859682776       25.06046029263462       16.56725547755128
C           23.85873066318669       25.82211133083608       18.94944652767715
C           22.84945199889522       21.58520401470305       17.13157253977206
C           22.41206073559421       20.57694167815363       16.05203052419066
C           22.69377091219862       19.15046729064000       16.53015094099197
C           22.36152200763178       18.14334210115186       15.43126989780606
C           24.00008760244501       17.61462590384031       13.72310579231441
C           24.64429178177689       18.01806683758132       12.50026405254024
C           25.26735077498269       18.15451493355328       11.47791989618763
C           25.97236917659516       18.42723957361497       10.22814702886277
C           27.56925392331235       16.67984771182194       10.86514176033413
C           27.38015736585718       17.27143347646490        8.57047154191642
C           24.89561922366903       18.75826811593175        9.18002873879038
C           26.87386031141405       19.65940246185623       10.45326322983171
C           22.80260907542387       19.77569637826863       13.69690194736937
C           23.15418933571266       20.84537904539182       14.73745101043519
C           21.21640982231123       23.27005455836537       16.34571226297942
C           20.41334708819291       20.70211420677690       20.68936441892342
C           19.48061232455161       20.30462877657608       19.52506590938297
C           18.29323875216416       19.51107856591945       20.07774368854055
C           16.93734548894160       20.30307328609923       18.30050561529877
C           18.14953926111959       21.07082325444459       17.77611898056322
C           19.95819446871587       22.87198274062302       24.58859409707878
C           19.53807601977025       21.69568737784087       25.46708418917194
C           18.12577175661961       21.25351789473908       25.09087622335986
C           15.32558100454519       16.75483926363557       20.96490532048710
C           14.63773309587327       16.10032039807803       19.91990254210085
C           14.81336333738025       16.50358208120630       18.59917024813495
C           15.69321305542159       17.52904988774847       18.34083200891581
C           16.42050454946232       18.16559687675380       19.36550452615667
C           16.22454722498764       17.77953423114546       20.67758595515705
F           21.03413546078035       20.66667401578752       15.82529956529199
H           10.65086060926215       15.91425960586793       24.18286117167277
H            9.39884912521980       16.09099010673381       22.94945310246280
H            9.57603123356446       14.55385638889616       23.82532377126689
H           11.60473746122252       15.73339625230171       21.86633406528370
H            8.73505411277086       15.16698837239580       20.96567862341159
H           10.16275677569308       15.63661436447745       20.00456060218707
H            9.34295733443815       14.08228001666606       19.69390686654631
H           12.02299042146117       11.50808459388313       25.07961735537824
H           14.50255605053834       11.56153899657136       24.73366702475971
H           15.42443446719881       13.27607992373862       23.16698353211335
H           12.42365000523702       13.63126237588216       20.31939792009924
H           12.79240136740252       14.50184587636062       18.82025066558034
H           14.63630648672662       12.50054332030309       20.22478420114038
H           13.72755528926239       12.20489682779445       18.74026021304734
H           15.04350381828530       13.38862011507357       18.75248574970533
H           15.35093621207371       15.61403904255693       24.19990451611571
H           16.49989873920737       16.74820216756070       23.47841515408216
H           14.89104591442544       16.85783752175155       26.23041058053715
H           16.25760524435791       17.85243881016546       25.71987443003703
H           14.73106767196689       18.61379186806905       26.17323247534195
H           12.66726261396190       18.14422346496760       24.80339498803701
H           12.81336344770055       17.45104611825544       23.18488531524981
H           12.97384129849108       16.41192636407858       24.60620929427014
H           14.32484944074746       19.77498389777912       23.95606767183999
H           14.72013619552599       18.92125567365630       22.45524819188223
H           18.73473364201077       20.08247493993271       23.38036516334988
H           18.32344019340102       22.12662686460467       21.88825557191631
H           19.70538511992594       22.76773227166555       20.50497881919200
H           22.53692884097489       22.11708952232093       20.09754294227853
H           23.66133181207138       23.23696034542511       18.65925637413653
H           22.29285685744390       25.69794615995576       17.50563410796677
H           24.98731057906463       24.42706327335939       16.80273776231608
H           23.63333034483522       24.65462242765952       15.69495853478553
H           24.49887514220832       26.05518707506114       16.32531271022581
H           23.17874284945983       25.85826621582337       19.79854429961942
H           24.75490514623685       25.28529189141680       19.25095513326550
H           24.13257766558307       26.83908696170881       18.68360326682863
H           23.74365119364958       19.08481533492937       16.81249259910776
H           22.09306625603416       18.94166152448938       17.41695840645142
H           21.28694284208309       18.17055703350797       15.22047333517843
H           22.64390579165125       17.13563146266717       15.73936695163286
H           27.04505140104673       16.63254861626378       11.81758144912017
H           27.85773064045348       15.66782193464184       10.58168227669877
H           28.48848096414705       17.27308562111111       10.99365573871744
H           28.27763149457112       17.91002060677925        8.59572159993776
H           27.69586107999883       16.25979901893541        8.31065540696412
H           26.70820165815995       17.62696391706588        7.79323273264929
H           24.16838860321710       19.44309926922227        9.60867880277439
H           25.33811621965511       19.23191486925998        8.30894423129207
H           24.38750475618010       17.84705983675264        8.87857763272226
H           27.57317976818315       19.48093902916160       11.26721975547774
H           27.43026334131181       19.88274345352811        9.54655265819527
H           26.26027919473164       20.51944116067724       10.70737688267183
H           23.38241897629050       19.93079448789451       12.78687010938017
H           21.73467347394215       19.84104150622130       13.46160796827187
H           22.89339968014318       21.82816923352993       14.34671651927139
H           24.22308872280408       20.82718562706404       14.95177990368104
H           20.29317184986184       22.85374896702211       16.75375246439803
H           21.15180303664333       24.35099511824891       16.40840370305844
H           21.31105900801506       22.97795647695828       15.30373666598688
H           21.40316903890271       20.27465388976255       20.52614650475956
H           20.02738143812087       20.26582115212393       21.60967687347411
H           20.01783183723434       19.66365431750704       18.80771431836802
H           17.77607761960541       20.14227624513168       20.82459459359089
H           18.67680478602905       18.61050008178595       20.56038826515692
H           16.30243797644669       20.00996789419814       17.46666490786521
H           16.36057960153502       20.96256914437288       18.97312921243648
H           17.83702840208927       22.00227834989486       17.30294693110784
H           18.69792520477741       20.45125236360720       17.05323508742477
H           20.99922310718416       23.14895936087250       24.75273802857719
H           19.31168127040820       23.73277015461767       24.77529409829642
H           19.56856114612083       21.99914103775335       26.51156323755605
H           20.23554531472512       20.86909155226170       25.32411337935780
H           17.41819552423740       22.05697961285565       25.29906736048761
H           17.83396774590383       20.36543524118884       25.65028499097317
H           14.29003756827381       16.02108974010727       17.78790113859557
H           15.86292953773439       17.83672182388291       17.32101282974401
H           16.76155947162266       18.23622666755376       21.49058389801712
