151
 energy: -221.011985017019 gnorm: 0.353202461069 xtb: 6.7.1 (edcfbbe)
C           29.80000300000000       -1.53000000000000       18.02000000000000
N           29.58000200000000        1.32000000000000       18.28000100000000
O           27.66000000000000       -0.94000000000000       16.76000200000000
C           28.39000300000000       -0.84000000000000       18.06000100000000
N           25.13000100000000        0.13000000000000       19.15000200000000
O           26.24000200000000       -1.93000000000000       24.84000200000000
C           26.97000100000000       -2.20000000000000       16.54000100000000
N           23.78000100000000       -3.02000000000000       27.48000100000000
O           12.86000100000000       -8.88000100000000       21.30000100000000
C           28.44000100000000        0.61000000000000       18.56000100000000
N           22.98000100000000       -2.33000000000000       28.44000100000000
O           15.84000100000000       -4.10000000000000       24.88000100000000
C           29.71000300000000        2.64000000000000       18.73000100000000
N           19.29000100000000       -2.75000000000000       27.14000300000000
O           19.13999900000000       -4.92000000000000       27.87000300000000
C           28.63000100000000        3.30000000000000       19.41000200000000
N           16.43000000000000       -5.23000000000000       26.76000200000000
O           20.17000200000000       -3.97000000000000       24.43000000000000
C           27.54000100000000        2.47000000000000       19.87000100000000
N           13.50000000000000       -8.02000000000000       23.27000000000000
O           20.86000300000000       -1.46000000000000       29.04000100000000
C           27.44000200000000        1.11000000000000       19.47000100000000
N           11.44000100000000      -13.30000000000000       23.70000100000000
O           25.38999900000000       -4.04000000000000       25.27000200000000
C           26.29000100000000        0.38000000000000       19.95000100000000
N           21.97000100000000       -2.59000000000000       22.81000100000000
C           24.91000200000000        0.79000000000000       17.86000100000000
C           23.96000100000000        2.01000000000000       18.18000000000000
C           26.01000000000000       -0.20000000000000       21.14000100000000
C           26.97000100000000       -0.12000000000000       22.42000200000000
C           27.75000000000000       -1.38000000000000       22.91000200000000
C           28.98000300000000       -0.97000000000000       23.64000100000000
C           28.35000000000000       -2.04000000000000       21.60000000000000
C           26.85000200000000       -2.45000000000000       23.60000200000000
C           25.45999900000000       -2.84000000000000       25.55000100000000
C           24.74000200000000       -2.21000000000000       26.76000200000000
C           21.56000100000000       -2.19000000000000       28.30000100000000
C           20.78000100000000       -2.80000000000000       27.00000000000000
C           18.62000100000000       -3.94000000000000       27.36000100000000
C           17.02000000000000       -3.96000000000000       27.38000100000000
C           16.65000200000000       -3.86000000000000       28.89000100000000
C           15.11000100000000       -3.83000000000000       29.02000200000000
C           17.18000000000000       -2.48000000000000       29.55000100000000
C           15.87000100000000       -5.18000000000000       25.51000200000000
C           15.37000100000000       -6.43000000000000       24.76000000000000
C           15.20000100000000       -6.22000000000000       23.17000200000000
C           14.66000100000000       -7.44000000000000       22.55000100000000
C           12.70000100000000       -8.86000100000000       22.54000100000000
C           12.04000100000000      -10.02000000000000       23.07000200000000
C           11.40000200000000      -10.89000100000000       23.68000000000000
C           10.81000100000000      -11.98000000000000       24.35000200000000
C           10.49000000000000      -14.53000100000000       23.66000200000000
C           12.79000100000000      -13.69000100000000       24.05000300000000
C           11.09000100000000      -11.96000100000000       25.90000200000000
C            9.25000100000000      -11.94000100000000       24.11000100000000
C           13.46000100000000       -8.20000100000000       24.69000100000000
C           13.92000100000000       -6.90000100000000       25.26000000000000
C           16.76000200000000       -6.65000000000000       27.32999999999999
C           21.11999900000000       -2.03000000000000       25.70000100000000
C           20.25000000000000       -2.49000000000000       24.44000100000000
C           20.73000100000000       -1.93000000000000       23.09000000000000
C           22.07000000000000       -4.06000000000000       22.98000100000000
C           21.49000200000000       -4.64000000000000       24.27000000000000
C           23.73000100000000       -1.61000000000000       29.51000200000000
C           24.82999999999999       -0.73000000000000       28.82000200000000
C           25.67000200000000       -1.58000000000000       27.85000000000000
C           24.70000100000000       -0.79000000000000       21.11000100000000
C           24.36000100000000       -0.79000000000000       19.78000100000000
C           23.24000200000000       -1.56000000000000       19.45000100000000
C           22.52000000000000       -2.28000000000000       20.47000100000000
C           22.85000000000000       -2.07000000000000       21.85000200000000
C           23.98000000000000       -1.35000000000000       22.15000200000000
F           16.28000100000000       -7.41000100000000       24.82999999999999
H           29.70000100000000       -2.57000000000000       17.72000100000000
H           30.50000200000000       -0.96000000000000       17.40000200000000
H           30.19000100000000       -1.45000000000000       19.04000100000000
H           27.76000000000000       -1.34000000000000       18.81000100000000
H           26.43000000000000       -2.49000000000000       17.45000100000000
H           26.31000100000000       -2.01000000000000       15.68000000000000
H           27.67000200000000       -3.00000000000000       16.33000200000000
H           30.55000100000000        3.20000000000000       18.33000000000000
H           28.75000199999999        4.33000000000000       19.72000100000000
H           26.77000000000000        2.91000000000000       20.48999999999999
H           25.86000300000000        1.14000000000000       17.44000100000000
H           24.33000200000000        0.07000000000000       17.27000000000000
H           24.39000100000000        2.69000000000000       18.92000000000000
H           23.56000100000000        2.46000000000000       17.26000000000000
H           23.00000199999999        1.61000000000000       18.56000100000000
H           27.70000300000000        0.67000000000000       22.28000300000000
H           26.36000100000000        0.27000000000000       23.24000200000000
H           29.66000000000000       -0.44000000000000       22.98000100000000
H           28.76000200000000       -0.34000000000000       24.50000000000000
H           29.51000200000000       -1.82000000000000       24.10000000000000
H           27.57000200000000       -2.30000000000000       20.88999900000000
H           29.17000000000000       -1.46000000000000       21.14000100000000
H           28.84000000000000       -2.97000000000000       21.88000100000000
H           27.38000100000000       -3.37000000000000       23.87000100000000
H           26.04000100000000       -2.70000000000000       22.88999900000000
H           24.28000300000000       -1.30000000000000       26.37000099999999
H           24.38000100000000       -3.70000000000000       27.94000200000000
H           21.14000100000000       -3.83000000000000       26.92000200000000
H           18.74000200000000       -1.89000000000000       27.02000000000000
H           16.71000100000000       -3.05000000000000       26.85000200000000
H           16.88000100000000       -4.74000000000000       29.50000000000000
H           14.65000100000000       -4.80000000000000       28.83000200000000
H           14.81000000000000       -3.85000000000000       30.07000200000000
H           14.62000000000000       -3.10000000000000       28.36000300000000
H           16.72000100000000       -2.28000000000000       30.51000200000000
H           18.28000100000000       -2.56000000000000       29.64000300000000
H           16.92000000000000       -1.66000000000000       28.87000099999999
H           14.52000000000000       -5.36000000000000       23.03000300000000
H           16.08000000000000       -5.85000000000000       22.62000100000000
H           15.35000000000000       -8.27000000000000       22.46000100000000
H           14.43000000000000       -7.21000000000000       21.51000000000000
H            9.73000000000000      -14.33000100000000       22.90000200000000
H           11.05000000000000      -15.43000100000000       23.39000300000000
H           10.00000000000000      -14.70000100000000       24.62000100000000
H           12.79000100000000      -14.43000000000000       24.86000100000000
H           13.37000000000000      -14.17000000000000       23.27000000000000
H           13.44000100000000      -12.82000100000000       24.20999900000000
H           12.12000000000000      -12.33000000000000       26.04000100000000
H           10.95000100000000      -10.96000100000000       26.32000200000000
H           10.41000000000000      -12.62000100000000       26.42000200000000
H            8.70000100000000      -12.68000000000000       24.71000300000000
H            8.87000000000000      -10.93000000000000       24.32000200000000
H            8.95000100000000      -12.24000100000000       23.11000100000000
H           12.40000000000000       -8.33000100000000       24.93000000000000
H           14.09000000000000       -9.04000100000000       24.98000100000000
H           13.89000000000000       -6.95000100000000       26.34000000000000
H           13.15000100000000       -6.15000000000000       25.05000100000000
H           17.73000100000000       -6.99000100000000       26.94000200000000
H           16.91000200000000       -6.53000100000000       28.40000200000000
H           15.97000100000000       -7.39000000000000       27.20000100000000
H           20.99000200000000       -0.95000000000000       25.84000000000000
H           22.17000000000000       -2.22000000000000       25.47000100000000
H           19.24000200000000       -2.06000000000000       24.50000000000000
H           20.79000100000000       -0.83000000000000       23.03000300000000
H           19.92000200000000       -2.26000000000000       22.42000200000000
H           21.56000100000000       -4.56000000000000       22.15000200000000
H           23.11000100000000       -4.38000000000000       22.88999900000000
H           22.19000100000000       -4.38000000000000       25.08000200000000
H           21.41000000000000       -5.72000000000000       24.18000200000000
H           23.10000200000000       -1.03000000000000       30.19000100000000
H           24.18000200000000       -2.37000000000000       30.16000000000000
H           25.41000200000000       -0.15000000000000       29.54000300000000
H           24.25000200000000       -0.03000000000000       28.22000100000000
H           26.36000100000000       -2.32000000000000       28.26000200000000
H           26.32000200000000       -0.87000000000000       27.32000200000000
H           22.90000200000000       -1.49000000000000       18.42000200000000
H           21.66000200000000       -2.87000000000000       20.16000000000000
H           24.41000200000000       -1.28000000000000       23.14000100000000
151
 energy: -221.150519056789 gnorm: 0.185922468212 xtb: 6.7.1 (edcfbbe)
C           29.78518476550738       -1.51204182055892       18.02694098787460
N           29.55390795085997        1.33604482811347       18.28592950238026
O           27.66763361213063       -0.93653523611768       16.78276652091668
C           28.38717223246294       -0.83380020719085       18.06441855587208
N           25.15558173911528        0.11004651885035       19.13610516711948
O           26.21862998995597       -1.94697472868119       24.84218504256094
C           26.98341907912485       -2.18482115337888       16.55209927940109
N           23.76379516827631       -3.02003864641807       27.47001610309268
O           12.83342192161624       -8.87812313940815       21.27073189708158
C           28.45303656295519        0.61709873139611       18.57644091083602
N           22.95730668161304       -2.32028316636271       28.41810787422934
O           15.83060408983502       -4.09421850840588       24.89387602480692
C           29.66319526670214        2.62692161850158       18.70436345814305
N           19.29683866894895       -2.77884737454357       27.14869694875804
O           19.16998813575615       -4.93789996921206       27.84687535908126
C           28.64128561165561        3.26501052831810       19.42700453145864
N           16.44579026943459       -5.23846458420558       26.75211023672889
O           20.17984433639982       -3.95607728871980       24.44241828508722
C           27.55491236179775        2.47090873872489       19.85326812709895
N           13.48559302022636       -8.03395020925233       23.24566911076580
O           20.89586471670707       -1.48364531615224       29.04136594967173
C           27.44307201052082        1.12730164539047       19.45186323079672
N           11.41782388817178      -13.30491524076126       23.69096967920805
O           25.38720830233487       -4.01490576644630       25.27594766950717
C           26.28739225457492        0.37276968910598       19.95017245591514
N           22.00015526072793       -2.60060577518939       22.82295011055566
C           24.89250432481210        0.79166231473051       17.87734290734664
C           23.94437535641157        1.99322066178744       18.17298030885237
C           26.04105518631152       -0.18782035032913       21.17532040915613
C           26.96086328897383       -0.11391342156850       22.42446625522858
C           27.74852446629761       -1.38392107349288       22.87661510783107
C           28.97567142529643       -0.96781613971846       23.66059797537609
C           28.34665114440257       -2.06136899524313       21.60426298734456
C           26.84703292475366       -2.43393461562176       23.60188339191173
C           25.46987257567939       -2.83792528156701       25.56828572499904
C           24.74058662970024       -2.18166390320897       26.76808512876328
C           21.56846806706961       -2.15991698717386       28.25968684613544
C           20.77856133199213       -2.78964329648200       27.00135885077001
C           18.61625972193215       -3.94005162673010       27.40777410212914
C           17.03165774776108       -3.97972724961078       27.38952913250445
C           16.61613920938530       -3.84310305825968       28.88859528666743
C           15.08867763056733       -3.84951280055989       29.02258042774834
C           17.17928353114110       -2.50738570844784       29.52714671508308
C           15.89791598715755       -5.17201660419187       25.50154109063892
C           15.35815328924545       -6.42305328376340       24.75080815641903
C           15.18403541463211       -6.19858324850202       23.19116519537748
C           14.65092837666991       -7.44809101420972       22.55428976048150
C           12.74102599153227       -8.90550656240573       22.51405607725248
C           12.02368067287069      -10.01919931914100       23.09100092398299
C           11.41274115087911      -10.87955149647969       23.69067639909797
C           10.80785771070748      -12.01729261057098       24.34281287506978
C           10.49849857366064      -14.50568949767649       23.66360871458274
C           12.77669933142517      -13.68365112721977       24.05070519878933
C           11.09036928072773      -11.96619821576096       25.88243312338053
C            9.25916508355704      -11.95135239487546       24.10866064857085
C           13.46893903455240       -8.18489396545419       24.67855889058241
C           13.93498795256547       -6.88117408873189       25.27921195193827
C           16.76566560679149       -6.61336540895443       27.33779465675949
C           21.12349341679884       -2.03012820025713       25.69846746480190
C           20.26012200143501       -2.49544895526134       24.46615416280397
C           20.73865097770228       -1.96538453585041       23.09898324767531
C           22.07284176332370       -4.06108033840171       22.95606021959685
C           21.48628634563394       -4.59796263255557       24.25797519515164
C           23.72716220334129       -1.62761282393296       29.49475837286041
C           24.81254874110776       -0.74850109250686       28.81154881425315
C           25.68743519289870       -1.55911077737772       27.83569292595837
C           24.74339157598360       -0.80200510454419       21.13116110559662
C           24.34432446883594       -0.77489674792454       19.78983345982413
C           23.22200822150281       -1.53903275819543       19.45318948112071
C           22.52677777871578       -2.24288794344903       20.45418812913678
C           22.85163026745918       -2.06876268646799       21.82809426701965
C           23.99599100817134       -1.36884774698968       22.15075079468588
F           16.27314875506761       -7.42822700054544       24.84619207801400
H           29.69880680946028       -2.55301116651458       17.72081232881558
H           30.48277575625001       -0.96408458892827       17.39358650440350
H           30.18790838451308       -1.45738450604544       19.03879049023413
H           27.76132804296071       -1.35087271862829       18.80575880850821
H           26.42193116541954       -2.48125442745944       17.44502304962465
H           26.32132048845779       -2.00786453485249       15.69738704850210
H           27.67759377344939       -2.99329037921514       16.32469373431960
H           30.53568194196410        3.17575343550234       18.34721156180312
H           28.74396031904710        4.30808849733084       19.71220021141362
H           26.78353271801013        2.90541743291457       20.48120488901333
H           25.83995755011803        1.12773916139631       17.44167796480349
H           24.34267262824131        0.07950748108050       17.25676946234859
H           24.38617502388000        2.68104540981811       18.89503647612365
H           23.59356486926018        2.47377153004823       17.25640553511916
H           23.00645281341014        1.60060886346776       18.58296675338820
H           27.70090731749709        0.66764783663357       22.26041179015833
H           26.34929983896143        0.26016003916360       23.24805934712631
H           29.65719960112341       -0.44104363266635       22.99501067002727
H           28.74942249231070       -0.32653699483222       24.50776859129834
H           29.50619038190435       -1.82473126025565       24.08944542598087
H           27.56966222291294       -2.29677276495505       20.88627378023519
H           29.13731935731819       -1.45258294316998       21.14672695444846
H           28.83906285320006       -2.98688377152778       21.88516761617410
H           27.38505308708358       -3.35377731007585       23.86448928483977
H           26.04335737833322       -2.70216164953915       22.90066426787664
H           24.25660567541026       -1.29611983675190       26.35236310552313
H           24.35167112843726       -3.70767576417566       27.94643473862367
H           21.12071006852428       -3.82637324482627       26.92349605282456
H           18.76504798002131       -1.91596751744386       27.01924881897264
H           16.69281762725007       -3.08457857529457       26.84708657355948
H           16.91403431719007       -4.71617862227162       29.48522651241815
H           14.65584164212424       -4.82080109456026       28.78730683890796
H           14.81315620327599       -3.80034238046474       30.07757601231732
H           14.62143529405303       -3.10020210343085       28.38263562272953
H           16.72587368341650       -2.30182821140816       30.49496710013756
H           18.26832867401840       -2.55641913776291       29.63824094527012
H           16.92456733979054       -1.67129550587268       28.87233335389923
H           14.50222836065464       -5.35685172049025       23.04082903431912
H           16.08792598911759       -5.86795709902839       22.65575767132106
H           15.37194239832954       -8.26589264807124       22.47454115381910
H           14.40531226301222       -7.21506571090585       21.51530233260599
H            9.73735296321054      -14.32956803527462       22.90378508904802
H           11.05673720891776      -15.40423156290350       23.39070377848421
H           10.00873801735170      -14.69204323196082       24.62208387088149
H           12.80429948259856      -14.40998321497420       24.87595134888149
H           13.33453841669230      -14.17464088630550       23.24547082095631
H           13.41663002256256      -12.81330395028104       24.23302876573780
H           12.11280731943693      -12.31647029324490       26.04747456497451
H           10.95709911799617      -10.96699617949691       26.30278548928305
H           10.41039670157718      -12.62560784807413       26.41150799963098
H            8.71555896564800      -12.67131949458022       24.72629983251488
H            8.88495207488760      -10.94448527497500       24.32105069098015
H            8.96981151780811      -12.22346640467770       23.09690131533893
H           12.41603635015934       -8.34085291641533       24.94033929027753
H           14.08904809370467       -9.03463880461140       24.98356944484570
H           13.90916378167398       -6.94994712083844       26.36074097742268
H           13.17426268952609       -6.13311027802133       25.03788966044860
H           17.71558983779521       -6.97735728858805       26.93265482533143
H           16.91035452356843       -6.51564269636510       28.40765924222089
H           15.97684416317304       -7.35380045455113       27.18519727523491
H           20.98439426889932       -0.95518988250394       25.83768151030690
H           22.17105437771567       -2.21664151111581       25.46535430853998
H           19.23866847116387       -2.09493520920560       24.52823094438801
H           20.80438396645955       -0.86428003690962       23.04606270941410
H           19.92784691702891       -2.26446869711968       22.40599378889862
H           21.54751129871035       -4.55958607789398       22.13212959650368
H           23.11789930592846       -4.36954412101905       22.88969618953992
H           22.17358349723470       -4.37536302920717       25.08477011295415
H           21.38265475689556       -5.68698416165797       24.18464833012703
H           23.09028075196811       -1.03294885276700       30.15845202052295
H           24.18562508664024       -2.37979447776746       30.14796850969753
H           25.40364565207746       -0.17908262804734       29.53579320369799
H           24.25480184148447       -0.02316259173684       28.21638035281322
H           26.34191770029766       -2.31740600797588       28.27506520171744
H           26.33850089362678       -0.85841199754969       27.31475652623880
H           22.89190625069313       -1.51188118574548       18.42125362765728
H           21.67660521105617       -2.85564514110910       20.16276388870234
H           24.38869740926718       -1.27879277416240       23.15101452373311
