151
 energy: -221.271786288127 gnorm: 0.156241353881 xtb: 6.7.1 (edcfbbe)
C            7.19430000000000       27.95330000000000       60.24400000000000
C            8.34770000000000       27.36360000000000       59.42700000000000
O            7.83460000000000       26.70680000000000       58.25489999999999
C            7.56350000000000       27.60490000000000       57.18830000000000
C            9.16020000000000       26.35790000000000       60.24209999999999
N            8.46390000000000       25.57910000000000       61.12239999999999
C            9.14360000000000       24.66120000000000       61.84020000000000
C           10.50610000000000       24.46250000000000       61.73669999999999
C           11.21390000000000       25.25120000000000       60.83830000000000
C           10.54980000000000       26.21710000000000       60.06980000000000
C           11.33590000000000       27.01000000000000       59.11620000000000
N           11.34480000000000       26.75250000000000       57.75690000000000
C           10.69300000000000       25.62740000000000       57.09490000000000
C           11.65580000000000       24.48090000000000       56.82509999999999
C           12.27580000000000       28.01610000000000       59.35710000000000
C           12.74300000000000       28.50750000000000       60.71009999999999
C           12.06280000000000       29.77120000000000       61.30970000000000
C           12.49220000000000       29.86400000000000       62.79500000000000
C           10.53100000000000       29.68780000000000       61.27300000000000
C           12.49790000000000       31.06390000000000       60.58559999999999
O           13.90970000000000       31.27170000000000       60.75429999999999
C           14.39580000000000       32.38310000000000       60.13170000000000
C           15.90450000000000       32.50220000000000       60.37130000000000
N           16.41440000000000       33.70150000000000       59.68380000000000
N           17.81690000000000       33.80760000000000       59.81119999999999
C           18.70430000000000       33.96290000000000       58.73980000000000
C           18.19930000000000       33.58380000000000       57.32820000000000
N           19.01460000000000       34.27080000000000       56.33650000000000
C           18.70740000000000       35.51250000000000       55.82700000000000
C           19.71580000000000       35.97430000000000       54.73990000000000
C           19.67380000000000       37.50300000000000       54.48390000000000
C           20.56500000000000       37.89510000000000       53.29790000000000
C           20.14150000000000       38.27920000000000       55.72379999999999
N           19.46220000000000       35.13679999999999       53.53090000000000
C           20.07539999999999       33.87180000000000       53.51380000000000
C           19.77520000000000       32.89780000000000       52.35210000000000
F           18.45860000000000       32.91080000000000       51.97089999999999
C           20.09340000000000       31.45890000000000       52.76930000000000
C           19.90060000000000       30.50810000000000       51.59910000000000
N           20.67610000000000       30.93220000000000       50.44049999999999
C           21.17320000000000       29.94000000000000       49.59590000000000
C           21.85180000000000       30.33990000000000       48.38110000000000
C           22.45150000000000       30.65790000000000       47.38829999999999
C           23.22450000000000       31.03860000000000       46.17510000000000
N           24.05540000000000       29.88010000000000       45.75250000000000
C           25.07850000000000       29.48660000000000       46.72840000000000
C           24.67590000000000       30.01430000000000       44.43380000000000
C           22.18100000000000       31.40800000000000       45.09380000000000
C           24.04600000000000       32.30660000000000       46.49909999999999
O           21.08780000000000       28.74070000000000       49.83400000000000
C           20.47600000000000       32.31160000000000       50.00210000000000
C           20.62540000000000       33.30220000000000       51.14780000000000
O           20.91250000000000       33.56850000000000       54.37419999999999
C           18.20630000000000       35.35760000000000       52.81930000000000
O           17.70330000000000       36.14110000000000       56.14269999999999
C           18.34410000000000       32.06050000000000       57.15020000000000
C           17.36770000000000       31.41950000000000       56.15020000000000
C           16.06850000000000       30.96550000000000       56.85659999999999
N           15.16220000000000       30.35310000000000       55.87170000000000
C           14.87740000000000       31.26950000000000       54.74410000000000
C           16.20440000000000       31.72019999999999       54.10830000000000
O           17.08920000000000       32.32190000000000       55.06730000000000
O           19.88830000000000       34.27050000000000       58.91960000000000
C           18.26510000000000       34.01190000000000       61.19240000000000
C           17.74020000000000       32.87810000000000       62.07830000000000
C           16.23950000000000       32.63190000000000       61.86419999999999
O           13.73480000000000       33.12870000000000       59.41969999999999
C           12.79790000000000       28.41650000000000       58.07780000000000
C           12.16250000000000       27.65250000000000       57.10349999999999
C           12.44770000000000       27.80780000000000       55.74160000000000
C           13.42910000000000       28.73540000000000       55.37160000000000
C           14.12790000000000       29.51570000000000       56.30099999999999
C           13.79280000000000       29.33600000000000       57.65740000000000
H            7.54710000000000       28.36950000000000       61.19329999999999
H            6.69520000000000       28.75550000000000       59.69090000000000
H            6.42790000000000       27.19930000000000       60.45450000000000
H            8.99730000000000       28.19080000000000       59.12360000000000
H            6.77980000000000       28.31550000000000       57.46050000000000
H            8.47200000000000       28.13800000000000       56.89250000000000
H            7.21470000000000       27.01990000000000       56.33290000000000
H            8.54040000000000       24.06840000000000       62.52230000000000
H           11.00470000000000       23.70870000000000       62.33510000000000
H           12.28640000000000       25.10820000000000       60.73010000000000
H            9.87270000000000       25.26640000000000       57.71650000000000
H           10.25090000000000       25.99800000000000       56.16390000000000
H           12.11360000000000       24.12409999999999       57.75310000000000
H           11.12660000000000       23.64370000000000       56.36110000000000
H           12.46350000000000       24.78420000000000       56.15200000000000
H           12.62370000000000       27.68150000000000       61.42310000000000
H           13.82940000000000       28.66650000000000       60.65810000000000
H           12.09660000000000       29.01980000000000       63.37200000000000
H           13.58240000000000       29.85220000000000       62.90179999999999
H           12.11990000000000       30.78520000000000       63.25840000000000
H           10.07670000000000       30.52770000000000       61.81130000000000
H           10.15560000000000       29.72950000000000       60.24630000000000
H           10.17270000000000       28.76800000000000       61.74580000000000
H           11.97160000000000       31.92599999999999       61.01610000000000
H           12.25160000000000       31.01330000000000       59.51929999999999
H           16.37200000000000       31.60950000000000       59.93860000000000
H           16.04250000000000       33.79840000000000       58.73900000000000
H           17.16840000000000       33.91490000000000       57.19340000000000
H           19.95130000000000       33.91360000000000       56.15300000000000
H           20.72260000000000       35.74640000000000       55.11579999999999
H           18.64860000000000       37.82760000000000       54.26959999999999
H           21.60000000000000       37.57180000000000       53.45780000000000
H           20.21130000000000       37.44800000000000       52.36350000000000
H           20.56790000000000       38.98109999999999       53.15629999999999
H           19.50280000000000       38.08010000000000       56.58870000000000
H           21.16990000000000       38.01350000000000       55.99370000000000
H           20.11170000000000       39.35770000000000       55.53740000000000
H           21.12720000000000       31.37960000000000       53.12950000000000
H           19.43780000000000       31.15320000000000       53.59260000000000
H           18.84750000000000       30.46760000000000       51.29580000000000
H           20.18680000000000       29.49580000000000       51.90650000000000
H           24.66050000000000       29.32200000000000       47.72639999999999
H           25.52840000000000       28.53080000000000       46.43440000000000
H           25.88500000000000       30.22300000000000       46.80700000000000
H           25.36590000000000       30.86220000000000       44.37870000000000
H           25.24050000000000       29.10810000000000       44.18230000000000
H           23.92830000000000       30.11500000000000       43.64080000000000
H           21.46720000000000       32.15140000000000       45.47000000000000
H           22.64550000000000       31.84140000000000       44.20130000000000
H           21.59580000000000       30.53260000000000       44.78530000000000
H           24.73610000000000       32.15130000000000       47.33600000000000
H           24.62600000000000       32.64900000000000       45.63700000000000
H           23.38590000000000       33.13280000000000       46.79370000000000
H           21.17950000000000       32.58000000000000       49.20950000000000
H           19.46850000000000       32.37160000000000       49.57150000000000
H           20.34600000000000       34.30010000000000       50.79120000000000
H           21.68180000000000       33.35640000000000       51.44300000000000
H           17.42540000000000       34.73750000000000       53.26840000000000
H           17.90420000000000       36.40560000000000       52.85770000000000
H           18.32100000000000       35.09770000000000       51.76500000000000
H           19.36270000000000       31.84620000000000       56.79740000000000
H           18.26460000000000       31.53770000000000       58.11230000000000
H           17.85720000000000       30.53060000000000       55.72880000000000
H           15.56950000000000       31.82250000000000       57.32220000000000
H           16.34530000000000       30.24430000000000       57.63440000000000
H           14.26380000000000       30.81290000000000       53.96210000000000
H           14.33710000000000       32.14380000000000       55.12910000000000
H           16.00670000000000       32.46430000000000       53.33040000000000
H           16.71930000000000       30.87390000000000       53.63699999999999
H           19.35740000000000       34.05169999999999       61.24819999999999
H           17.87820000000000       34.98150000000000       61.52920000000000
H           17.94060000000000       33.09860000000000       63.13190000000000
H           18.28190000000000       31.95570000000000       61.83270000000000
H           15.66820000000000       33.45810000000000       62.30790000000000
H           15.94180000000000       31.72500000000000       62.40240000000000
H           11.96340000000000       27.20090000000000       54.98330000000000
H           13.68320000000000       28.78780000000000       54.31570000000000
H           14.30140000000000       29.89990000000000       58.42690000000000
151
 energy: -221.300632566118 gnorm: 0.070518701531 xtb: 6.7.1 (edcfbbe)
C            7.19229055647574       27.95191467271194       60.24960774818680
C            8.34651000165970       27.36053098206684       59.43562129659617
O            7.85531226209098       26.70809819608305       58.25566885026291
C            7.56964140902597       27.60112147804782       57.19340077184179
C            9.16774003436770       26.34966133983423       60.23102296468300
N            8.48602277681924       25.59028784556499       61.10360713991586
C            9.14286793181938       24.68181343916425       61.82163053954461
C           10.50670156946725       24.47677876623652       61.72595238407334
C           11.21780740664026       25.26021866260650       60.83179118500308
C           10.55844626064242       26.21904236394677       60.05679424778106
C           11.35495694717737       27.01737454896172       59.10264112422184
N           11.32722547699596       26.76051448038006       57.74557236740458
C           10.68226265262378       25.63455632763754       57.09580829869670
C           11.65508275630179       24.48897906815215       56.82703645976277
C           12.27634230498047       28.02779287467147       59.35414469087976
C           12.73432893025465       28.50909410457948       60.70652713480163
C           12.06872755118132       29.76854999063237       61.32117978332887
C           12.49637394715645       29.86494674766894       62.79607099796095
C           10.53972254794767       29.68778339796755       61.26746246535873
C           12.50066026588236       31.05568403690872       60.59041991167270
O           13.91169283596384       31.28429553091337       60.74244391031572
C           14.41139627243582       32.36589217041794       60.12310500035336
C           15.91201534873086       32.50503562972983       60.37185925728828
N           16.42156438749113       33.70726881246898       59.70067268048142
N           17.82352535559687       33.80148628087883       59.79861740439868
C           18.69429249480552       33.93680167459361       58.75242873050998
C           18.20107980778750       33.58860627101039       57.33074020455680
N           19.00911449403733       34.28456978041640       56.34420025964445
C           18.70766503047582       35.50424930861038       55.83037355545277
C           19.71056735755559       35.96530926836439       54.74275689080175
C           19.67373710100798       37.49214204357546       54.47922623239561
C           20.56177943500818       37.88192350741623       53.29403101512438
C           20.13926107746698       38.26134170580745       55.72214638972761
N           19.45849949904197       35.12474162527298       53.54624285948253
C           20.05859525189735       33.88634405281362       53.52001599734625
C           19.78135531177513       32.90582936412465       52.35776434435832
F           18.45355392598714       32.90526314210904       51.97727007031258
C           20.10422216760528       31.46330501721151       52.76414137325425
C           19.90330002479421       30.51459995092068       51.58483464915652
N           20.68616992691203       30.92628849185003       50.42824160997114
C           21.17297305744086       29.95677835351974       49.59119526245894
C           21.86911184631992       30.39579528822405       48.39975708249083
C           22.46574717322967       30.65054070933962       47.37833494837060
C           23.22817082175897       31.03869395549811       46.17357771083457
N           24.05382322514271       29.88257838202988       45.75227426341215
C           25.06936218545325       29.49352444470673       46.72574497633779
C           24.67013084480900       30.01996310637234       44.43892709654571
C           22.18363762570612       31.39914656714675       45.09665870306837
C           24.04248842991691       32.30779742121361       46.50777301393597
O           21.09906183369352       28.75589831169725       49.84462767800388
C           20.47234071134713       32.29983846722828       49.99771060432821
C           20.63433117183446       33.29628751520938       51.14623001508049
O           20.91034342328702       33.58058225808132       54.35231013619550
C           18.21322989275886       35.36049495043907       52.82761378323128
O           17.70492706164387       36.13070049408915       56.13833151155416
C           18.34474919064648       32.06623717296318       57.13890740947477
C           17.35450491369621       31.42081360287376       56.14987240757866
C           16.05192165922005       30.96911267791815       56.84288288459579
N           15.15745557489598       30.34054831374702       55.87407062939477
C           14.88730402341813       31.26507158518778       54.76471389805968
C           16.20489065920401       31.71525252639760       54.12379605581111
O           17.07897783975848       32.31928250663087       55.07535175426272
O           19.86383157954029       34.26889489126832       58.93603999849985
C           18.25049356672984       34.01406088012330       61.18095321277216
C           17.73756215725390       32.87014521543042       62.06103630429738
C           16.23633348930472       32.63290692442569       61.86615507766143
O           13.75483508403248       33.11080149503834       59.43115627223990
C           12.80531797561942       28.42784654520316       58.08111337015336
C           12.17012812508770       27.63882995649655       57.10418074801193
C           12.46296432296643       27.79424588600176       55.75040042946627
C           13.42436992944994       28.71959735241614       55.38347554298738
C           14.11997355554429       29.50539972531557       56.32105800037635
C           13.79072464916141       29.34644698748718       57.67049404318809
H            7.55512256151106       28.36067051673114       61.19016257584554
H            6.70666093383373       28.75372777802389       59.69185255070160
H            6.44636951189926       27.18664699875288       60.45887899897060
H            9.01280827865045       28.17631913564396       59.12352840573107
H            6.78490898771727       28.31210806492026       57.46413902177814
H            8.47233591109042       28.14514718178101       56.89635366509551
H            7.22173209069380       27.00184941765639       56.35153553443432
H            8.53409962438824       24.09457869836085       62.50062238013639
H           10.99796413386184       23.72282447518889       62.32512013157358
H           12.28498954755106       25.11863110270219       60.72257977531070
H            9.86462988143782       25.28009286727045       57.72651144667097
H           10.25000379033773       25.99259406199170       56.15708236367352
H           12.10535302551457       24.13528707442749       57.75439145203772
H           11.12602284464830       23.65575023906367       56.36654547427963
H           12.45833669514873       24.79565361571471       56.15724455884818
H           12.59938012317668       27.68856489013417       61.41944564054889
H           13.81400749278804       28.69000819191677       60.64972225554704
H           12.09634401419479       29.02257713740706       63.36022788672744
H           13.58119555358516       29.85544555661713       62.89061499364333
H           12.12106152800359       30.78309365225691       63.24794283688906
H           10.09293053808108       30.52433829520033       61.80691124217090
H           10.17203710212727       29.72300957339925       60.24311496094613
H           10.18837591406017       28.76721848152092       61.73175771958245
H           11.97247300285996       31.91939088605377       61.01127251921685
H           12.25938968074008       31.00294623311575       59.52334613617452
H           16.37781436154720       31.59734560511943       59.95772990838071
H           16.06036865984478       33.80243361455641       58.75784614518975
H           17.17147048168132       33.91881374600024       57.18006432774526
H           19.93463445729226       33.91489522391916       56.15239176549075
H           20.71910472359796       35.72448191787338       55.09797514704135
H           18.64539712548819       37.80785547621031       54.27534039679485
H           21.59068317733492       37.56454798782637       53.46233241822261
H           20.21087097270552       37.43540954843422       52.36581717952170
H           20.56013851255925       38.96470607734778       53.16653171023152
H           19.49980771315633       38.06078251063472       56.58105392699677
H           21.16401457687882       38.00081436760758       55.98817991750894
H           20.10592970520981       39.33418437073919       55.52901819992316
H           21.13181144347251       31.40214705942626       53.12689049327412
H           19.44332553924248       31.16594326927683       53.58306291079673
H           18.84252816065239       30.47886018361216       51.30056554161833
H           20.20137960999568       29.50367758620859       51.87666114839254
H           24.63123174567508       29.34222198548201       47.71388654303885
H           25.50695999531240       28.54001114226623       46.41937739156118
H           25.88453167720894       30.22428748041198       46.80679242783263
H           25.36764307734935       30.86488100581449       44.37781047645348
H           25.23005875976630       29.10945484006835       44.21228759995923
H           23.91501134756397       30.12178383896510       43.65993835980066
H           21.48199236591284       32.13745044036715       45.48871370421741
H           22.65591518858341       31.83385664771792       44.21644721530427
H           21.61173400309242       30.52199965237253       44.79382764357712
H           24.73039657122118       32.14024939120407       47.33670773278021
H           24.61609840485041       32.63342232848255       45.64017131918038
H           23.37587099867351       33.12291345382346       46.79199874169134
H           21.18370106213204       32.55092111991637       49.20869627059789
H           19.45951996635400       32.37761393089563       49.57920805712082
H           20.34518811335590       34.28984741528869       50.79412216143099
H           21.68083918999758       33.34675884593516       51.45624956743595
H           17.41578237635902       34.75311615791242       53.26197044895249
H           17.92812625840756       36.40755349557697       52.88594509487335
H           18.32612633364253       35.10863643997712       51.77448184907973
H           19.36507135772031       31.86957952935474       56.79446393317908
H           18.24860762397201       31.55503080148959       58.10175895080373
H           17.83581133903969       30.52476380138555       55.72763798343440
H           15.56837272462755       31.83426279333595       57.32007855922774
H           16.32377002664021       30.23969370477596       57.60983814115819
H           14.27580577501382       30.79451590795498       53.99456016317703
H           14.34747016924548       32.14910294908752       55.13656151741259
H           16.01506535171750       32.46774883680608       53.35397923071240
H           16.71454516478219       30.86260985180735       53.65620884957212
H           19.34146828911502       34.05188609607299       61.21114199511950
H           17.86200951398273       34.97791237828175       61.52675030641407
H           17.93590753189656       33.10324225372596       63.10904619297457
H           18.28333371891976       31.95447231237211       61.81771369856268
H           15.66879554691827       33.46663365216206       62.28791382792860
H           15.93565195943660       31.72386651632290       62.39086224321711
H           11.96937364964084       27.20462220520371       54.99133727119820
H           13.67107891540984       28.79301516594773       54.33107090837879
H           14.30269362214378       29.91503753874170       58.43188033738814
151
 energy: -221.310947736853 gnorm: 0.020864285460 xtb: 6.7.1 (edcfbbe)
C            7.20290498322010       27.94603348550879       60.25290300634170
C            8.35874547473289       27.36655883786687       59.43394301386676
O            7.88397364695973       26.70960596780958       58.25386517290337
C            7.57772780438754       27.59501800996713       57.19654099834661
C            9.17765657747404       26.35525389801709       60.22321213013714
N            8.50505356440881       25.60500059296390       61.08205994568372
C            9.14191104351575       24.69973084747665       61.80058543957193
C           10.50842671553826       24.49052492738015       61.71217956747227
C           11.22274772475872       25.27112262637292       60.82076947183879
C           10.56785143944692       26.22893494439524       60.04534620431221
C           11.36827092612664       27.03123019789919       59.09219480595183
N           11.31074322720063       26.77817610287979       57.73798584578039
C           10.67357799898811       25.65011292279679       57.09888194631102
C           11.65144602618454       24.50227292302879       56.83494870049641
C           12.27721459326274       28.04043064705122       59.35207046060395
C           12.73363172844712       28.50941219733028       60.70321220922069
C           12.07697109718570       29.76949693044176       61.31981335333238
C           12.50228650962840       29.86439119407161       62.78888445886533
C           10.55009909523536       29.68918640220346       61.25940373580383
C           12.50741148011746       31.05039600473270       60.58529259117624
O           13.91963311719578       31.28903824224023       60.73065273108029
C           14.42206276691599       32.35258638132239       60.12105712426885
C           15.91955071609709       32.49620591347630       60.36793103665138
N           16.41829392272986       33.70244066226364       59.70998216369568
N           17.81892345561858       33.80178081546334       59.78274649232015
C           18.67477690271016       33.93524870964146       58.75963212481635
C           18.19129052777814       33.59139382528576       57.33380831547980
N           19.00416164668872       34.29517639984777       56.36066802848856
C           18.70540296859717       35.49448283758328       55.83721846272712
C           19.70669103360151       35.94450823503551       54.74720364452365
C           19.66781127688467       37.46755889499710       54.47772811171505
C           20.55385569467954       37.85699082985342       53.29344420588274
C           20.13482200610155       38.23309474631501       55.72005219087484
N           19.44618248324898       35.10209527573964       53.56273608482429
C           20.05451455082414       33.89825489435258       53.51636800733746
C           19.78374838065997       32.91236731325554       52.35504391754655
F           18.44323932069237       32.90426515984871       51.97657294227757
C           20.11430407802217       31.47090348178488       52.76045673127808
C           19.90823213948313       30.52512444988236       51.57498525245136
N           20.69214744885096       30.93038302825932       50.41987124412548
C           21.19847682500879       29.97941267037903       49.60258595914432
C           21.88925419652238       30.43585179884199       48.41640321629979
C           22.47929423771304       30.65159160351623       47.38458690953249
C           23.22637749393981       31.03938060799756       46.18160412387280
N           24.05091062750904       29.89186677526844       45.75544617536720
C           25.05558085770412       29.49968939057013       46.72746865449649
C           24.66157047657469       30.02572347945988       44.44480447145895
C           22.18392811648351       31.39211284445250       45.10547523880744
C           24.03908662946291       32.30944599491183       46.51525701208103
O           21.11389455156603       28.77650163017423       49.85527811804028
C           20.47057182038863       32.29762498509244       49.99317800352789
C           20.64023600556039       33.29815692262110       51.14206685180860
O           20.91955493436864       33.58016739250895       54.33111956457737
C           18.21568037819258       35.36669503259543       52.83441230742297
O           17.69754758979230       36.12266492383652       56.12799863677481
C           18.33523327313730       32.06850171800633       57.13485997949182
C           17.34090509955878       31.42146815266014       56.15012530756074
C           16.04001411489097       30.97006901134295       56.84306195892555
N           15.15915588625647       30.33772465554751       55.87939835151776
C           14.88820330472902       31.25920511526468       54.78293924815430
C           16.20220629087869       31.70844442816557       54.14272848393892
O           17.06880319305774       32.31659708578241       55.08381268120984
O           19.84571627786264       34.25872050246196       58.94636892694727
C           18.23788611756424       34.01067057598141       61.16483011726771
C           17.73677992596382       32.86255444441164       62.04470464824618
C           16.23602425578726       32.63132460718003       61.86297589439298
O           13.77111657693861       33.09311434943272       59.42316561679252
C           12.81375343628643       28.43816310714552       58.08417177461472
C           12.17567832676349       27.63514404754633       57.10713906597260
C           12.47604582734004       27.79083767080954       55.75875029124244
C           13.42792186449257       28.71279270556554       55.39463767285294
C           14.11755279361613       29.50334106884164       56.34047607128894
C           13.79207631760434       29.35831716364439       57.68332224764961
H            7.57318442144862       28.34968814227785       61.18835419354573
H            6.71964840805005       28.74519439993794       59.69622652681012
H            6.47529622830860       27.16842223924766       60.46210742944312
H            9.03513454672371       28.17687329618260       59.11899491529918
H            6.78879057883707       28.30155872895267       57.46913086321846
H            8.47124016152920       28.15422893826405       56.89437850257740