151
 energy: -221.092711156456 gnorm: 0.337003995378 xtb: 6.7.1 (edcfbbe)
C            9.95000100000000       16.13000100000000       21.15000000000000
N           10.72000000000000       14.07000100000000       22.92000000000000
O           10.55999900000000       13.96000000000000       20.16000000000000
C           11.02000000000000       15.17000100000000       20.81000100000000
N           14.43000000000000       15.13000100000000       20.40000200000000
O           15.91000100000000       20.09000000000000       23.45000100000000
C           10.22000100000000       14.25000100000000       18.79000100000000
N           18.69000100000000       22.29000100000000       22.58000200000000
O           26.25000200000000       16.76000200000000       13.75000100000000
C           11.63000100000000       14.66000100000000       22.11000300000000
N           19.77000000000000       22.79000100000000       23.28000100000000
O           25.17000200000000       22.18000200000000       17.50000200000000
C           11.13000000000000       13.37000000000000       23.99000200000000
N           22.19000100000000       22.13000100000000       20.48999999999999
O           21.19000200000000       24.12000300000000       20.14000100000000
C           12.46000100000000       13.44000100000000       24.47000100000000
N           22.95000100000000       22.29000100000000       17.70000100000000
O           21.39000100000000       19.63000100000000       19.88000100000000
C           13.33000100000000       14.09000000000000       23.65000000000000
N           25.08000200000000       18.62000100000000       14.49000200000000
O           21.93000000000000       23.58000000000000       23.02000000000000
C           12.98000100000000       14.74000100000000       22.48000100000000
N           24.93000000000000       18.26000000000000        9.02000000000000
O           16.57000000000000       20.87000100000000       21.41000000000000
C           14.08000100000000       15.47000000000000       21.74000000000000
N           19.01000200000000       18.23000100000000       20.01000200000000
C           13.99000100000000       13.90000200000000       19.73000000000000
C           14.66000100000000       12.59000000000000       20.22000100000000
C           14.87000100000000       16.47000100000000       22.23000000000000
C           14.82000200000000       17.13000100000000       23.63000100000000
C           14.09000000000000       18.44000100000000       23.72000100000000
C           14.00000100000000       18.88000100000000       25.20000300000000
C           12.68000000000000       18.08000200000000       23.26000200000000
C           14.70000100000000       19.57000200000000       22.88000100000000
C           16.72000100000000       20.81000100000000       22.62000100000000
C           17.94000100000000       21.33000200000000       23.38000100000000
C           21.02000000000000       22.81000100000000       22.71000100000000
C           21.22000100000000       21.80999900000000       21.50000000000000
C           22.07000000000000       23.32000000000000       19.80000100000000
C           23.10000200000000       23.41000000000000       18.63000100000000
C           23.07000200000000       24.84000200000000       18.03000100000000
C           23.36000300000000       25.95000100000000       19.07000000000000
C           21.77000000000000       24.97000100000000       17.28000100000000
C           24.07000000000000       21.67000000000000       17.28000100000000
C           24.08000200000000       20.28000100000000       16.57000000000000
C           25.50000199999999       19.69000100000000       16.71000100000000
C           25.52000000000000       18.40000000000000       15.86000100000000
C           25.47000100000000       17.67000000000000       13.54000100000000
C           24.82999999999999       17.75000000000000       12.28000100000000
C           24.30000100000000       17.97000100000000       11.22000100000000
C           23.73000100000000       18.22000100000000        9.90000100000000
C           25.82000000000000       19.34000200000000        9.35000000000000
C           24.53000100000000       18.32000200000000        7.57000000000000
C           22.78000100000000       17.04000100000000        9.38000000000000
C           22.83000000000000       19.52000000000000        9.97000000000000
C           23.68000000000000       19.10000000000000       14.43000000000000
C           23.60000200000000       20.44000200000000       15.09000000000000
C           21.51000000000000       21.83000200000000       17.46000100000000
C           21.49000200000000       20.38000100000000       22.11000300000000
C           21.04000100000000       19.28000100000000       21.19000200000000
C           19.47000100000000       19.01000200000000       21.14000100000000
C           19.82000200000000       18.05000100000000       18.85000000000000
C           21.27000000000000       18.51000000000000       19.01000200000000
C           19.44000100000000       23.49000200000000       24.52000000000000
C           18.77000000000000       22.53000100000000       25.45000100000000
C           17.54000100000000       21.92000200000000       24.71000300000000
C           15.84000100000000       16.73000100000000       21.20000100000000
C           15.51000100000000       15.91000100000000       20.07000200000000
C           16.24000200000000       16.04000100000000       18.90000200000000
C           17.39000100000000       16.76000200000000       18.93000000000000
C           17.82000000000000       17.56000100000000       20.02000000000000
C           16.92000000000000       17.52000000000000       21.11999900000000
F           23.18000000000000       19.44000100000000       17.20000100000000
H            9.45000100000000       16.55000100000000       20.17000200000000
H            9.15000100000000       15.62000100000000       21.63999900000000
H           10.31000000000000       16.98000100000000       21.74000000000000
H           11.85000000000000       15.64000100000000       20.25000000000000
H            9.64000000000000       13.42000000000000       18.47000100000000
H            9.57000000000000       15.13000100000000       18.62000100000000
H           11.18000000000000       14.26000100000000       18.16000200000000
H           10.43000100000000       12.75000100000000       24.51000200000000
H           12.74000100000000       13.01000100000000       25.41000200000000
H           14.39000000000000       14.23000100000000       23.90000200000000
H           12.91000000000000       13.82000100000000       19.97000100000000
H           13.95000100000000       14.11000100000000       18.68000000000000
H           14.74000100000000       12.48000000000000       21.34000000000000
H           14.21000100000000       11.67000000000000       19.79000100000000
H           15.71000100000000       12.65000200000000       19.76000000000000
H           14.30000100000000       16.45000100000000       24.33000200000000
H           15.85000000000000       17.15000000000000       23.96000100000000
H           13.46000100000000       18.13000100000000       25.75000000000000
H           14.95000100000000       19.11000100000000       25.67000200000000
H           13.41000100000000       19.75000199999999       25.38999900000000
H           12.62000100000000       17.73000100000000       22.28000300000000
H           12.27000100000000       17.31000100000000       23.86000100000000
H           12.20000100000000       19.06000100000000       23.35000000000000
H           14.06000000000000       20.45000100000000       22.68000000000000
H           14.94000100000000       19.24000200000000       21.92000200000000
H           18.55000100000000       20.42000000000000       23.50000200000000
H           17.91000200000000       22.98000100000000       22.32999999999999
H           20.29000100000000       21.74000000000000       20.97000100000000
H           22.56000100000000       21.34000000000000       19.97000100000000
H           24.03000100000000       23.26000200000000       19.10000000000000
H           23.85000200000000       24.86000100000000       17.26000000000000
H           23.62000300000000       26.92000200000000       18.66000000000000
H           22.62000100000000       26.13000100000000       19.84000000000000
H           24.22000100000000       25.53000300000000       19.63000100000000
H           21.63999900000000       26.08000000000000       17.10000000000000
H           21.69000200000000       24.41000200000000       16.31000100000000
H           20.93000200000000       24.68000200000000       17.93000000000000
H           26.23000100000000       20.38999900000000       16.33000200000000
H           25.70000100000000       19.50000000000000       17.81000100000000
H           24.92000200000000       17.59000000000000       16.35000000000000
H           26.54000100000000       18.06000100000000       15.71000100000000
H           26.56000100000000       19.06000100000000       10.15000200000000
H           26.37000099999999       19.55000100000000        8.46000000000000
H           25.36000100000000       20.27000200000000        9.64000000000000
H           25.38000100000000       18.41000000000000        6.88000000000000
H           23.84000000000000       17.49000200000000        7.36000100000000
H           23.82000200000000       19.23000100000000        7.44000000000000
H           22.24000200000000       17.27000000000000        8.49000100000000
H           23.35000000000000       16.06000100000000        9.22000000000000
H           22.00000000000000       16.87000100000000       10.13000000000000
H           23.27000000000000       20.22000100000000       10.65000100000000
H           22.78000100000000       19.95000100000000        8.98000000000000
H           21.86000100000000       19.22000100000000       10.43000100000000
H           23.45000100000000       19.12000100000000       13.40000100000000
H           23.02000000000000       18.39000100000000       14.93000000000000
H           22.56000100000000       20.95000100000000       15.15000200000000
H           24.26000200000000       21.17000200000000       14.61000100000000
H           21.13000100000000       21.25000000000000       18.24000200000000
H           20.86000300000000       22.75000000000000       17.49000200000000
H           21.30000100000000       21.29000100000000       16.61000100000000
H           22.52000000000000       20.17000200000000       22.40000000000000
H           20.94000100000000       20.31000100000000       22.98000100000000
H           21.48000000000000       18.33000000000000       21.52000200000000
H           18.98000100000000       20.04000100000000       21.21000100000000
H           19.22000100000000       18.45000100000000       22.04000100000000
H           19.77000000000000       17.02000000000000       18.54000100000000
H           19.38000100000000       18.70000100000000       18.07000000000000
H           21.63000100000000       18.72000100000000       17.99000200000000
H           21.80000100000000       17.69000100000000       19.48000100000000
H           20.45999900000000       23.82000200000000       24.88000100000000
H           18.78000100000000       24.31000100000000       24.22000100000000
H           18.57000200000000       23.00000199999999       26.47000100000000
H           19.50000000000000       21.76000200000000       25.65000200000000
H           16.84000200000000       22.72000100000000       24.53000100000000
H           17.04000100000000       21.14000100000000       25.38999900000000
H           15.88000100000000       15.40000100000000       18.08000200000000
H           17.95000100000000       16.78000100000000       18.00000000000000
H           17.14000100000000       18.04000100000000       22.07000000000000
151
 energy: -221.208698187715 gnorm: 0.162707187278 xtb: 6.7.1 (edcfbbe)
C            9.93024091691105       16.14274488750361       21.13116808177292
N           10.73528463151582       14.03772087902217       22.91070529817334
O           10.56084622034687       13.99518971628074       20.14422024605231
C           11.03268553044429       15.17269290230017       20.82515915030410
N           14.41783299381282       15.12107359394457       20.42100826688769
O           15.91173342045616       20.09631073258072       23.44729252706535
C           10.22310731087988       14.23891962909196       18.78020424622287
N           18.67660781586389       22.27473786371193       22.57131548281227
O           26.27121576138365       16.77655523229140       13.76224057339337
C           11.62936627145174       14.65405004736137       22.12256520758373
N           19.77486784365603       22.78883300002816       23.25334712592340
O           25.16076906267122       22.19550332625043       17.50564142111666
C           11.13835544972210       13.38266928843632       23.99141228013349
N           22.19545583565249       22.13903823704716       20.50592205344829
O           21.20890355919001       24.12051800430073       20.13171592982370
C           12.45735205350223       13.44135046502308       24.45977545574622
N           22.92714041691854       22.29011675443985       17.70742164562551
O           21.40718422022100       19.61595373244350       19.86242513000769
C           13.34732958991764       14.11169216095500       23.65923585694531
N           25.05983330951576       18.60239067460976       14.49579646461279
O           21.92069046704455       23.55819122609788       23.03598102039331
C           12.98148927584763       14.73909218883638       22.47159715562325
N           24.91000220452170       18.27052488057937        9.00094282838022
O           16.56023923941525       20.88353865496274       21.42979453249797
C           14.06189446502774       15.46046723250994       21.73886797016359
N           19.00797430342814       18.22453382084312       20.02671796946983
C           13.96295310944903       13.90300217715887       19.75430830700089
C           14.68348226994122       12.60941657980237       20.19792789713855
C           14.86586376396263       16.45899714927247       22.23234951454222
C           14.83764197869772       17.11007243430276       23.62011172036985
C           14.09818642506286       18.43895773906434       23.72678021771605
C           13.99685065793902       18.87835366561587       25.20304715936160
C           12.67770639431387       18.11211377271355       23.26107178507542
C           14.70340586749873       19.56907638306222       22.87333370285786
C           16.72816444716061       20.78489193718848       22.62586232056678
C           17.93720514921502       21.31740725264778       23.39295381374196
C           21.01170855959505       22.82125310739211       22.67103374381067
C           21.20804817433610       21.79325150172940       21.50595390486016
C           22.05865006760654       23.29989061489482       19.80408101372954
C           23.08538310361754       23.41115843758600       18.64692220149958
C           23.06349289699882       24.82885412493478       18.01623389620094
C           23.37077020045799       25.92081431128996       19.07100884682132
C           21.75121760489766       25.00204147869773       17.27868838776352
C           24.06112997900988       21.68043464113190       17.29548481053170
C           24.07792710208119       20.30956816724776       16.57091362562116
C           25.48073320472426       19.68469553119295       16.69215382333574
C           25.53113675138774       18.39427503673283       15.85749830749869
C           25.44522462506101       17.65929142294025       13.55493615033651
C           24.81860802862824       17.75893985680426       12.27361224264018
C           24.28696886795819       17.96074301969664       11.20873210703543
C           23.72147367553004       18.20045021286351        9.88458600123307
C           25.82537887092953       19.34000530685651        9.34215643696452
C           24.50516008078773       18.33993383175964        7.57896990829506
C           22.78304265019694       17.03347829193238        9.40333990360483
C           22.84368468343845       19.50091347686210        9.97698919039187
C           23.68059960067881       19.10465288279620       14.42928198089677
C           23.60962733119554       20.45461817837560       15.10368458639868
C           21.51461063338315       21.84490407662890       17.47497523697109
C           21.47507099543088       20.38019852076982       22.10630246091786
C           21.01749078251448       19.27250486269899       21.16866149708885
C           19.46632960957501       19.01309190457545       21.15386327371137
C           19.80890735072291       18.06984970280258       18.84392748458972
C           21.26243113394266       18.49236081968530       19.01654104210264
C           19.45942789301456       23.49128311659969       24.50117723121911
C           18.78127256521882       22.52067936168097       25.44489219911908
C           17.54174393786825       21.92200893754389       24.73625840499141
C           15.82756506178345       16.72730765232066       21.19856772968706
C           15.50027233832573       15.90104901677176       20.08615489681499
C           16.23721127509038       16.01408288074198       18.91639293258672
C           17.38185632424724       16.77475980570582       18.92404981723706
C           17.81034620536659       17.54993385151846       20.03478456930577
C           16.94004770370746       17.52597857087911       21.13824175783882
F           23.19170312515579       19.44904556566359       17.19461397592769
H            9.46654724902318       16.55336051275713       20.19052234720973
H            9.14344834023002       15.62009852980060       21.65235836838484
H           10.30253444844171       16.97442043726338       21.72850470070993
H           11.84144240706363       15.64370817949819       20.24265023586370
H            9.63564654468860       13.39464314538075       18.46408730520116
H            9.59750829545315       15.12857322794894       18.62887889972801
H           11.15861457366744       14.27685347453590       18.16937031878767
H           10.42053825431246       12.76775435225629       24.51047068488656
H           12.73823440841725       13.00062784991792       25.40050979892193
H           14.39781109210469       14.21886783086544       23.91335879312548
H           12.89606787779517       13.80718555412346       19.98389527045625
H           13.97993219152169       14.09348928532133       18.68241444053590
H           14.73414988884425       12.49995104594594       21.29881962935196
H           14.20750128321695       11.70341264162264       19.79479599294875
H           15.71264639130371       12.63914448958867       19.78227946901981
H           14.31035049314205       16.44370677193208       24.31705656312868
H           15.86726306692796       17.16008749706425       23.96190711769940
H           13.47229666897018       18.11205376486830       25.75971970870198
H           14.95897903409404       19.09230520715138       25.65933105375612
H           13.40272695357398       19.76896031930416       25.36195517309915
H           12.63162724766408       17.74405647877973       22.25624424804797
H           12.26184199743518       17.32803546194419       23.87386121817170
H           12.15262089611101       19.05801332140764       23.34613087902879
H           14.04327234180119       20.43695635702426       22.70349219845714
H           14.94585270393975       19.21714215357250       21.88900775615835
H           18.55898839322497       20.41990575593238       23.51443151353873
H           17.95040870387166       22.98734162295130       22.32639857958124
H           20.26098527753343       21.73963089163152       20.97892278215400
H           22.57072604072716       21.34616165958650       19.99394511179863
H           24.04887779083988       23.26050179992356       19.10995981700746
H           23.86187295159718       24.86129968081231       17.26591057691796
H           23.61911526821594       26.89245970288187       18.64423113928638
H           22.60143454868771       26.10608339344916       19.81927371122724
H           24.23320068748580       25.54534691849717       19.63339795385375
H           21.62732024444561       26.07711264900462       17.08015590489391
H           21.70046704254345       24.43451149334885       16.33314125650646
H           20.92540544116526       24.69627843929182       17.92407811846731
H           26.22145034264654       20.39097418969891       16.33004397060960
H           25.69172718992174       19.49420778797595       17.76957359275655
H           24.92870338389688       17.60191335706857       16.34574532559668
H           26.55399485705030       18.04811600790963       15.73139310167055
H           26.53904679913327       19.05133026436931       10.14025302751429
H           26.39457147007149       19.55595670889621        8.45223587402365
H           25.35145851345994       20.27199663342113        9.64619491790754
H           25.36412106067328       18.40468753942077        6.90770258094511
H           23.87152583017917       17.48289231593278        7.35084098797667
H           23.84187037168920       19.23382570956681        7.42195946515774
H           22.25198588837417       17.28281285678439        8.49548014338566
H           23.34484539675472       16.08963721659340        9.23446936397388
H           22.00938728622838       16.86039261913545       10.14857204190305
H           23.28042191914615       20.22387414279136       10.65259859299679
H           22.76148391745382       19.94389615539843        8.99083068603350
H           21.87131942387718       19.22541536195436       10.40740578334095
H           23.43237160585057       19.13402749595498       13.38372385743262
H           23.02074091503588       18.39097753264753       14.93373084896837
H           22.58717189905285       20.91691242286575       15.13244702442037
H           24.26433557102604       21.17185347381332       14.60948323315205
H           21.14418595192383       21.23287157778499       18.27297724962220
H           20.87487920205444       22.74182895917892       17.48182158222523
H           21.32866727388562       21.29331475167941       16.58247009937936
H           22.51922832521421       20.19814929983481       22.37904770984026
H           20.91685209040646       20.30829762907993       23.01090933483991
H           21.48551268485559       18.33149686375904       21.50303392876993
H           18.97597649051461       20.01787399363194       21.19587141095992
H           19.21543457170378       18.45615337653099       22.05608585674629
H           19.78255297363070       17.02642383297257       18.53650374532917
H           19.37227269693524       18.69921610842551       18.05287003930791
H           21.63055262678522       18.71808427528595       18.01783326095494
H           21.81837093433641       17.67603784610854       19.47450855842929
H           20.43916974721494       23.83651991696133       24.88275105939104
H           18.79413474356555       24.32037135732207       24.23408844558488
H           18.55440225344406       22.99301095886638       26.43008668801075
H           19.50179444399026       21.73780266525204       25.65528076305287
H           16.83145127799167       22.72119606588369       24.54094379811833
H           17.04990699428448       21.15665076481617       25.37764659888555
H           15.89681523583400       15.40878912198299       18.07689393115516
H           17.94469666343974       16.78578496600585       18.00009435715149
H           17.15636890936278       18.05952967666671       22.06237258773622
151
 energy: -221.258366834110 gnorm: 0.051786770346 xtb: 6.7.1 (edcfbbe)
C            9.91360904459004       16.15636264683744       21.12030295850455
N           10.74768154078956       14.00515252211876       22.89444704462813
O           10.56365936411630       14.01631929617570       20.13417313063051
C           11.03995193048123       15.17494770437553       20.83191036818085
N           14.40939332462162       15.11413184173123       20.44478519595275
O           15.91358093644643       20.09527540547366       23.44347600055827
C           10.23085652054372       14.23448026107258       18.77687661961753
N           18.66566727209085       22.25382605582419       22.56433635191087
O           26.29000241318709       16.79800108358871       13.77149202120241
C           11.62717465137679       14.64473453328303       22.12671538862283
N           19.77906735590510       22.78589491957753       23.22985903677383
O           25.15027631334905       22.21340832621400       17.51662964115893
C           11.14762546101773       13.38991247070598       23.98845579114443
N           22.19361796086122       22.14426394419888       20.52380376938478
O           21.22158387370727       24.12611171607582       20.12053504625155
C           12.45629571103015       13.44683132517396       24.44999199264491
N           22.90931900854564       22.28280619008482       17.71629089813799
O           21.41987234120056       19.59838500393073       19.85520322404910
C           13.36455312716980       14.13083011823279       23.66853662261239
N           25.03853132823629       18.57656022275461       14.49825664774822
O           21.91132637817104       23.53003911776808       23.04884896130815
C           12.98234908845643       14.74148680615562       22.46865811862033
N           24.88712048693075       18.28228565366390        8.98024134748177
O           16.55187735615563       20.90092778524393       21.44809066753119
C           14.04669762713395       15.45307500758931       21.74060757755930
N           19.00492069696765       18.20550540789431       20.04069306731713
C           13.94927308170573       13.90994765100491       19.77154681740224
C           14.69762963237174       12.62982340876247       20.18521794517987
C           14.86554197632886       16.45000928227135       22.23806588004015
C           14.84807673126487       17.09183413344774       23.60989469504010
C           14.09838711934486       18.43671341593541       23.72763120625299
C           14.00050273946665       18.87375558161987       25.20081161092070
C           12.67286261100380       18.14072891627335       23.25657228161251
C           14.70714802234301       19.56128191918906       22.86620310621329
C           16.72525604710021       20.77203627729211       22.63716930914119
C           17.93539018641782       21.30246896185673       23.40363215322866
C           21.00862382125295       22.81015624929839       22.64850460961929
C           21.18231144294193       21.77991472694062       21.50725281200094
C           22.05547258604926       23.28599527715913       19.81866570977727
C           23.07137882811852       23.40755668165725       18.66318660813738
C           23.05796692136292       24.81475220104878       18.01314239403352
C           23.37904655573444       25.89447927596028       19.06979898290134
C           21.73880322385321       25.03249466403055       17.27990289508742
C           24.05510844579604       21.69065775070489       17.30568627818266
C           24.07555678992235       20.33336513872190       16.56643623246221
C           25.46799779428809       19.68887021634157       16.67161982855858
C           25.53064653318815       18.39327964054264       15.85625405539927
C           25.43720911091395       17.66086670656667       13.56170626221624
C           24.80081504600583       17.76789612776857       12.27503479049709
C           24.27118680051323       17.93370780883133       11.20453452461531
C           23.71730008806642       18.19048392716322        9.87742712526965
C           25.82503649173119       19.33971468131987        9.33360812418804
C           24.48508546328292       18.36121631578715        7.58333881773433
C           22.79166297931277       17.03557324478036        9.42513693862309
C           22.85338597589145       19.48418809721182        9.98247911148928
C           23.68395584690344       19.10821936221855       14.43076989279777
C           23.62026824276315       20.47020091798838       15.11049402789186
C           21.52680178761349       21.85048110678549       17.49108632291345
C           21.45134202352834       20.38689039044909       22.10440592620537
C           20.99407105963364       19.26568905485279       21.15822130375745
C           19.46450239921090       19.01497025339146       21.15794843673573
C           19.79887885471511       18.08137008320825       18.84089979538226
C           21.25418932184660       18.47515678559936       19.02367851906074
C           19.47448823773252       23.49095827169487       24.47931563001199
C           18.78933038582273       22.50981317823630       25.43308883221426
C           17.54345440808222       21.92284931930666       24.75362170826577
C           15.81810003068052       16.72291820680920       21.20219436308290
C           15.49289827944975       15.89380203720963       20.10493598270920
C           16.23575373494955       15.98900671765455       18.93581705021037
C           17.36778807428761       16.78149767009684       18.92272041722255
C           17.79490861244776       17.53359440647435       20.05081474204666
C           16.95388932378990       17.52686160244048       21.16006955260036
F           23.19579278196987       19.46045281035235       17.19101291832733
H            9.48507639958759       16.55180210523220       20.20983664281504
H            9.13983271542032       15.62337372678158       21.66617772680748
H           10.29430320472420       16.97464360002148       21.72499930256330
H           11.83240250957495       15.65656434218914       20.23899387398698
H            9.64125396047019       13.37687613475035       18.46660409982820
H            9.61867650950051       15.12780293822779       18.63432737034653