151       
 energy: -221.323027569205 gnorm: 0.009524878163 xtb: 6.7.1 (edcfbbe)
C 7.343600 28.019699 60.217999
C 8.444100 27.386499 59.367298
O 7.915200 26.684299 58.241798
C 7.518000 27.518299 57.175098
C 9.252000 26.387899 60.173599
N 8.575600 25.637501 61.028801
C 9.219900 24.756701 61.773102
C 10.594100 24.580299 61.717499
C 11.309100 25.356300 60.823101
C 10.642700 26.278700 60.018002
C 11.419800 27.085400 59.067299
N 11.296900 26.904499 57.709400
C 10.648700 25.791800 57.060902
C 11.594600 24.597700 56.931400
C 12.355700 28.059200 59.341702
C 12.812800 28.507000 60.695400
C 12.140500 29.778200 61.263100
C 12.561800 29.947001 62.724899
C 10.618600 29.662201 61.184200
C 12.552400 31.022301 60.468700
O 13.942800 31.315901 60.689201
C 14.493200 32.237202 59.925900
C 15.954700 32.480701 60.268600
N 16.362301 33.756302 59.692600
N 17.743299 33.941502 59.791698
C 18.653799 33.886700 58.812698
C 18.184700 33.497898 57.398899
N 18.981600 34.212200 56.430500
C 18.591900 35.338699 55.824902
C 19.597601 35.803699 54.761200
C 19.605400 37.322399 54.557201
C 20.481001 37.701698 53.365398
C 20.144199 37.966702 55.833698
N 19.307800 35.010399 53.562599
C 19.972900 33.853298 53.449299
C 19.693899 32.893799 52.281898
F 18.345800 32.900200 51.917500
C 20.032801 31.461800 52.704601
C 19.811899 30.509199 51.532700
N 20.567499 30.931101 50.374401
C 21.420099 30.082001 49.765900
C 22.035200 30.563101 48.555698
C 22.608200 30.756500 47.513100
C 23.252399 31.107599 46.251099
N 24.032801 29.942801 45.812801
C 24.990999 29.468800 46.790798
C 24.654400 30.069700 44.511501
C 22.127300 31.397900 45.241501
C 24.082701 32.388599 46.480000
O 21.663500 28.944700 50.185299
C 20.291401 32.275002 49.925098
C 20.532101 33.279499 51.056999
O 20.884399 33.542999 54.222698
C 18.121000 35.354198 52.803902
O 17.518600 35.889702 56.035000
C 18.377501 31.985701 57.205601
C 17.393299 31.365499 56.203999
C 16.068501 30.997400 56.888699
N 15.174300 30.421400 55.912498
C 14.927100 31.381701 54.854698
C 16.262501 31.724100 54.194199
O 17.183701 32.260799 55.125198
O 19.841499 34.141499 59.016499
C 18.116899 34.119499 61.187698
C 17.727600 32.862701 61.969601
C 16.241199 32.557098 61.771702
O 13.922100 32.808601 59.018398
C 12.857800 28.496099 58.078300
C 12.181600 27.743999 57.088799
C 12.471500 27.917400 55.740299
C 13.435700 28.831800 55.390202
C 14.131500 29.591101 56.354301
C 13.834200 29.418699 57.696301
H 7.782300 28.495100 61.089699
H 6.805600 28.768101 59.642300
H 6.653500 27.245899 60.542400
H 9.126500 28.167200 58.994499
H 6.635000 28.112200 57.428101
H 8.334100 28.192600 56.886799
H 7.279500 26.853701 56.347900
H 8.604500 24.174601 62.445099
H 11.085200 23.857800 62.348598
H 12.380300 25.248899 60.730900
H 9.763200 25.511200 57.635399
H 10.325400 26.119699 56.070400
H 11.899200 24.248301 57.915501
H 11.093600 23.785601 56.412998
H 12.484000 24.879900 56.371799
H 12.626000 27.699400 61.405499
H 13.889800 28.684401 60.657398
H 12.188300 29.117001 63.318100
H 13.644000 29.979401 62.809502
H 12.156400 30.870501 63.129398
H 10.146300 30.478001 61.724701
H 10.287000 29.696400 60.150101
H 10.294700 28.720900 61.620499
H 11.972800 31.892799 60.792099
H 12.383900 30.879999 59.396999
H 16.520100 31.631800 59.837601
H 16.001400 33.899101 58.755699
H 17.149000 33.798901 57.218498
H 19.903700 33.844601 56.235500
H 20.602100 35.503201 55.078201
H 18.582399 37.680302 54.411400
H 21.496401 37.347500 53.527901
H 20.108299 37.267300 52.442902
H 20.505800 38.782398 53.254799
H 19.530701 37.691101 56.688801
H 21.164101 37.641499 56.022900
H 20.136801 39.048599 55.738602
H 21.068501 31.438101 53.040401
H 19.392200 31.179501 53.540199
H 18.747400 30.496799 51.272499
H 20.132000 29.498400 51.791698
H 24.520700 29.412001 47.770802
H 25.304100 28.465700 46.503300
H 25.888399 30.102100 46.860600
H 25.452000 30.829500 44.480499
H 25.100401 29.106501 44.262501
H 23.906799 30.302401 43.757900
H 21.365801 32.014000 45.711399
H 22.516199 31.928699 44.377998
H 21.673700 30.464199 44.922401
H 24.804800 32.243000 47.280102
H 24.609900 32.653702 45.567501
H 23.422899 33.207199 46.751701
H 20.936199 32.503502 49.076000
H 19.243200 32.336601 49.611198
H 20.267599 34.279301 50.714500
H 21.579399 33.274899 51.357700
H 17.281099 34.720501 53.091499
H 17.854799 36.384102 53.016998
H 18.301600 35.249699 51.736900
H 19.401300 31.826300 56.865101
H 18.263399 31.469000 58.158901
H 17.823900 30.431400 55.804298
H 15.630700 31.899300 57.349400
H 16.281900 30.255100 57.657600
H 14.247500 30.968800 54.113098
H 14.484300 32.305698 55.266602
H 16.135099 32.488499 53.427399
H 16.686800 30.816900 53.740501
H 19.190399 34.300701 61.224602
H 17.576300 34.986900 61.570099
H 17.940201 33.019001 63.025002
H 18.327499 32.022099 61.615898
H 15.639600 33.360699 62.199001
H 15.970800 31.617201 62.251999
H 11.971200 27.340200 54.977501
H 13.690900 28.949699 54.348499
H 14.355900 29.980101 58.455002
