151
 energy: -221.117192261188 gnorm: 0.354048658004 xtb: 6.7.1 (edcfbbe)
C           11.59000000000000       16.00000000000000       25.03000100000000
N           11.98000000000000       13.37000000000000       23.72000100000000
O           10.31000000000000       15.85000000000000       22.99000000000000
C           11.69000100000000       15.84000100000000       23.52000000000000
N           13.25000000000000       16.15000200000000       20.48999999999999
O           17.96000100000000       18.41000000000000       23.41000000000000
C            9.97000000000000       17.18000000000000       22.65000200000000
N           20.48999999999999       20.60000200000000       22.68000000000000
O           22.12000100000000       17.38000100000000       14.06000000000000
C           12.44000100000000       14.57000000000000       23.20000100000000
N           21.76000200000000       20.63000100000000       22.07000000000000
O           22.57000200000000       22.16000000000000       16.16000000000000
C           12.66000000000000       12.27000100000000       23.51000000000000
N           21.10000200000000       22.10000000000000       18.84000000000000
O           19.16000200000000       23.35000000000000       18.90000200000000
C           13.79000100000000       12.19000100000000       22.73000000000000
N           20.62000099999999       23.26000200000000       15.97000100000000
O           18.90000200000000       20.30000300000000       17.35000200000000
C           14.32000100000000       13.39000100000000       22.19000100000000
N           22.12000100000000       19.24000200000000       12.84000000000000
O           22.95999900000000       20.85000000000000       20.17000200000000
C           13.55000000000000       14.53000100000000       22.29000100000000
N           27.60000200000000       17.13000100000000       12.98000100000000
O           18.67000200000000       20.15000200000000       24.77000200000000
C           14.03000100000000       15.69000100000000       21.56000100000000
N           16.44000100000000       20.48999999999999       18.99000000000000
C           11.98000000000000       15.62000100000000       20.06000100000000
C           12.04000100000000       14.54000100000000       18.96000099999999
C           15.16000000000000       16.49000000000000       21.70999900000000
C           16.33000200000000       16.15000200000000       22.63000100000000
C           16.34000000000000       16.84000200000000       24.04000100000000
C           17.37000099999999       16.08000000000000       24.90000000000000
C           14.94000100000000       16.79000100000000       24.78000300000000
C           16.66000200000000       18.29000100000000       24.05000300000000
C           18.83000200000000       19.32000000000000       23.88000100000000
C           20.11000100000000       19.22000100000000       22.98000100000000
C           21.91000200000000       20.88999900000000       20.78000100000000
C           20.65000200000000       21.23000100000000       19.88000100000000
C           20.27000200000000       23.16000200000000       18.50000200000000
C           20.94000100000000       23.91000000000000       17.30000100000000
C           20.60000200000000       25.38999900000000       17.13000100000000
C           21.36000100000000       26.19000200000000       16.08000000000000
C           20.88000100000000       26.11000100000000       18.50000200000000
C           21.59000199999999       22.41000200000000       15.50000100000000
C           21.38000100000000       21.66000200000000       14.18000100000000
C           20.57000200000000       20.40000200000000       14.39000000000000
C           20.68000000000000       19.37000100000000       13.23000000000000
C           22.78000100000000       18.22000100000000       13.45000100000000
C           24.24000000000000       18.16000200000000       13.39000100000000
C           25.45000100000000       18.08000200000000       13.37000000000000
C           26.94000200000000       18.30000100000000       13.59000100000000
C           27.20000100000000       15.94000100000000       13.73000000000000
C           29.06000100000000       17.16000000000000       12.79000100000000
C           27.23000000000000       19.61000100000000       12.82000100000000
C           27.25000200000000       18.42000200000000       15.06000000000000
C           22.73000000000000       20.53000300000000       12.42000100000000
C           22.78000100000000       21.49000200000000       13.58000000000000
C           19.17000000000000       23.20000100000000       15.62000100000000
C           20.20000100000000       19.84000000000000       19.32000000000000
C           18.83000200000000       19.83000000000000       18.70000100000000
C           17.78000100000000       20.63000100000000       19.47000100000000
C           16.49000000000000       20.96000300000000       17.55000100000000
C           17.61000100000000       20.20000100000000       16.77000000000000
C           22.85000000000000       20.25000000000000       22.94000200000000
C           22.64000100000000       18.81000100000000       23.40000200000000
C           21.21000100000000       18.51000000000000       23.80000100000000
C           15.07000100000000       17.49000200000000       20.72000100000000
C           13.83000000000000       17.33000000000000       20.05000100000000
C           13.46000100000000       18.25000000000000       19.03000100000000
C           14.38000100000000       19.22000100000000       18.64000100000000
C           15.66000100000000       19.38000100000000       19.31000100000000
C           15.91000100000000       18.57000200000000       20.40000200000000
F           20.64000100000000       22.52000000000000       13.28000100000000
H           12.53000100000000       16.02000000000000       25.58000200000000
H           11.09000100000000       16.89000100000000       25.35000000000000
H           10.96000100000000       15.21000000000000       25.37000300000000
H           12.24000100000000       16.63000100000000       23.01000200000000
H           10.14000000000000       17.50000200000000       21.63000100000000
H            8.88000100000000       17.25000000000000       22.82000000000000
H           10.25000100000000       17.88000100000000       23.43000200000000
H           12.46000100000000       11.37000100000000       24.08000200000000
H           14.19000100000000       11.21000100000000       22.57000200000000
H           15.17000100000000       13.27000000000000       21.53000100000000
H           11.46000000000000       15.18000100000000       20.98000000000000
H           11.47000100000000       16.53000100000000       19.68000000000000
H           11.08000000000000       14.33000100000000       18.49000200000000
H           12.87000100000000       14.82000200000000       18.31000100000000
H           12.34000100000000       13.56000000000000       19.35000000000000
H           16.37000100000000       15.00000100000000       22.80000300000000
H           17.24000200000000       16.39000100000000       22.16000000000000
H           17.15000000000000       15.05000100000000       24.79000100000000
H           18.39000100000000       16.30000100000000       24.57000000000000
H           17.39000100000000       16.24000200000000       25.99000200000000
H           14.50000000000000       15.80000000000000       24.87000300000000
H           15.01000000000000       17.27000000000000       25.68000000000000
H           14.19000100000000       17.32000200000000       24.12000300000000
H           16.66000200000000       18.62000100000000       25.04000100000000
H           15.91000100000000       18.90000200000000       23.48000000000000
H           19.80000100000000       18.67000200000000       22.13000100000000
H           20.55000100000000       21.19000200000000       23.52000000000000
H           19.87000100000000       21.70000100000000       20.52000000000000
H           22.03000100000000       21.92000200000000       18.43000000000000
H           22.03000100000000       23.94000100000000       17.43000000000000
H           19.52000000000000       25.62000099999999       16.95000100000000
H           20.90000200000000       27.14000300000000       15.80000000000000
H           22.39000100000000       26.21000100000000       16.37000100000000
H           21.40000200000000       25.68000000000000       15.17000100000000
H           20.51000200000000       27.15000200000000       18.52000000000000
H           20.34000200000000       25.63000100000000       19.41000200000000
H           21.91000200000000       26.14000100000000       18.69000100000000
H           20.90000200000000       19.97000100000000       15.34000000000000
H           19.48000100000000       20.60000200000000       14.52000000000000
H           20.03000100000000       19.71000100000000       12.49000100000000
H           20.21000100000000       18.45000100000000       13.56000000000000
H           27.75000000000000       15.82000000000000       14.65000100000000
H           26.12000300000000       16.04999900000000       13.96000000000000
H           27.35000200000000       15.05000100000000       13.11000100000000
H           29.29000100000000       17.87000100000000       11.95000100000000
H           29.63000100000000       17.53000100000000       13.65000000000000
H           29.39000100000000       16.20000100000000       12.57000100000000
H           26.51000000000000       20.38000100000000       13.04000000000000
H           28.24000200000000       20.03000100000000       13.25000000000000
H           27.34000199999999       19.58000000000000       11.77000000000000
H           26.99000200000000       19.39000100000000       15.46000100000000
H           26.71000300000000       17.58000200000000       15.58000100000000
H           28.24000200000000       18.07000000000000       15.16000000000000
H           23.82000200000000       20.45000100000000       12.16000100000000
H           22.24000200000000       20.95000100000000       11.56000000000000
H           23.08000200000000       22.49000200000000       13.33000100000000
H           23.48000000000000       21.18000000000000       14.31000100000000
H           18.89000100000000       24.22000100000000       15.33000100000000
H           18.97000100000000       22.48000100000000       14.81000000000000
H           18.48000000000000       22.90000200000000       16.45000100000000
H           20.87000100000000       19.42000200000000       18.61000100000000
H           20.22000100000000       19.21000099999999       20.22000100000000
H           18.53000100000000       18.76000000000000       18.60000200000000
H           18.01000200000000       21.63999900000000       19.38000100000000
H           18.05000100000000       20.47000100000000       20.51000200000000
H           15.55000100000000       20.76000200000000       17.10000000000000
H           16.73000100000000       22.01000200000000       17.63000100000000
H           17.76000200000000       20.60000200000000       15.78000100000000
H           17.33000000000000       19.15000200000000       16.78000100000000
H           23.76000200000000       20.37000300000000       22.35000200000000
H           22.95000100000000       20.93000200000000       23.85000200000000
H           23.29000100000000       18.62000100000000       24.20999900000000
H           22.90000200000000       18.11000100000000       22.55000100000000
H           21.08000000000000       18.99000000000000       24.73000000000000
H           20.93000200000000       17.46000100000000       23.75000000000000
H           12.50000000000000       18.10000000000000       18.57000200000000
H           14.09000000000000       19.79000100000000       17.76000200000000
H           16.77000000000000       18.77000000000000       20.97000100000000
151
 energy: -221.235080535114 gnorm: 0.167964163484 xtb: 6.7.1 (edcfbbe)
C           11.58507362412371       15.99846058465765       25.03400972332259
N           11.99495514524849       13.39126663118713       23.73785853551780
O           10.33817868598028       15.86179828982061       22.97948706545482
C           11.69758423167212       15.82976150432927       23.51904719851197
N           13.25074797814164       16.16376683865422       20.50469639023006
O           17.96534516877824       18.43171227847384       23.41511324009738
C            9.93571658162293       17.18209334789306       22.66748619693030
N           20.48527571851518       20.61084652830563       22.66403303265764
O           22.15751351766047       17.36258643712681       14.06155077453106
C           12.43070901783583       14.54593803912188       23.17782295476092
N           21.75704030131740       20.64223457380879       22.06705973456591
O           22.58064967783524       22.17146891024861       16.16282255351910
C           12.67047496353788       12.28090240079572       23.52718641491360
N           21.08738262302144       22.11460427955912       18.84429947926610
O           19.17606593470462       23.36202442771925       18.89882909936167
C           13.79662479584906       12.19086229283512       22.73134697525433
N           20.60377304097398       23.24114360289315       15.99515949499576
O           18.89473498683230       20.30925317863032       17.35644206258183
C           14.29414352284158       13.36296871053002       22.16397394300019
N           22.11004617682681       19.25030699064912       12.84514723646132
O           22.98726358486016       20.85076607193007       20.18038805635850
C           13.55825227185182       14.53096538082799       22.30904379111167
N           27.59475492051989       17.12783084915646       12.97572753570037
O           18.67162698158456       20.12781797290019       24.76048800858004
C           14.02484487165853       15.69886218607874       21.56321234208582
N           16.44410311054774       20.47684699545698       18.97613450529468
C           11.97952179129203       15.62466601265488       20.06920008456248
C           12.05957672039890       14.53955075317884       18.97588005910308
C           15.16024407125447       16.47674136423032       21.71476286350579
C           16.31461293829429       16.14930766110692       22.64188033700187
C           16.32141616089204       16.81828038587047       24.05499902080476
C           17.36993894374961       16.07119583335452       24.90108338608216
C           14.93078966451828       16.78335092901819       24.75144872130618
C           16.67232382051814       18.28670704253335       24.03583174899487
C           18.82789385401995       19.33221513447779       23.86039155005770
C           20.10556488328573       19.23981441359215       22.98965633657609
C           21.91485301294513       20.89480439897548       20.76772044903004
C           20.66327279475446       21.22333419532485       19.88854735020936
C           20.28326571832028       23.14585988662978       18.45351447122391
C           20.93208018406030       23.93939567828184       17.27849888345952
C           20.57445381171891       25.42799109298704       17.16266148174614
C           21.36224713794400       26.17039265332171       16.07638424903018
C           20.86689195043236       26.11692826454319       18.51772132603567
C           21.55582252442414       22.39195202765374       15.53016580971419
C           21.36645763495209       21.67391003821770       14.18869766870682
C           20.57056639420053       20.39647222241761       14.39856293948874
C           20.69111858182041       19.38882978783830       13.23752915727994
C           22.78348899770176       18.22826698650519       13.44877667019309
C           24.23801615737004       18.18291713562056       13.38359588863222
C           25.44451755624519       18.10001364365973       13.37693072828203
C           26.92223472319804       18.30163876287398       13.56301007527969
C           27.19845596660094       15.93743220377702       13.72260917673233
C           29.04751946879460       17.18111312921862       12.78991724477494
C           27.25652998026658       19.62173690952796       12.83846563925494
C           27.23620749882982       18.40308259973339       15.05397421092115
C           22.74005081157365       20.51805891087578       12.42297848628034
C           22.76029109070639       21.49356571393877       13.58229689166824
C           19.17670993920791       23.20963873575118       15.62145631272338
C           20.19790533913927       19.84572023882194       19.33831114800516
C           18.82702093562589       19.82141766421989       18.69656811631843
C           17.78601984430212       20.62649670261286       19.47885856868755
C           16.50040843728321       20.95134932266189       17.56355717201898
C           17.60584909878866       20.20056607898938       16.77803714398850
C           22.84989776871535       20.24847105191027       22.93534278787251
C           22.63774047831022       18.79907922331980       23.37780845409064
C           21.19869526772052       18.52345453282626       23.80738022315657
C           15.06755720604765       17.49933044288073       20.72981473552251
C           13.84391788989084       17.32209795271376       20.04026819628551
C           13.47857822661730       18.22668468158651       19.02663762479185
C           14.37860412645538       19.20146114598708       18.64279934926101
C           15.63786979106786       19.38322638212178       19.30770484928453
C           15.90898410499614       18.57025424349444       20.39568613145748
F           20.64416103344229       22.51723972120154       13.28167819596962
H           12.53281686258064       16.00614887450116       25.56601129584046
H           11.08284561399182       16.90949938369751       25.33249392309901
H           10.96147364724176       15.19007693284728       25.37988621062377
H           12.24419130716414       16.63617360144182       23.02122580118070
H           10.15811501625357       17.49280499159995       21.64581151977411
H            8.84969016319354       17.23044781185526       22.80483890206512
H           10.28302044616569       17.88804984789100       23.42267800433729
H           12.42049971889821       11.37672939632080       24.07296583371857
H           14.21205194097399       11.21345421356541       22.57166727015626
H           15.16781248482761       13.28055551653224       21.53106575752145
H           11.45607337388923       15.19904038317162       20.95727752279598
H           11.44979863107626       16.50793120791207       19.68271762207265
H           11.09789543091268       14.35998936768850       18.49290824511229
H           12.85487436306305       14.82341108417543       18.28938981802340
H           12.34803366404428       13.56303649921280       19.37231667789443
H           16.35154242045923       15.03497624474620       22.79791605763096
H           17.24299976344731       16.40076460126112       22.15576712660654
H           17.16098366792757       15.02419374994043       24.79118455207148
H           18.38328524234306       16.29352769361432       24.56074178251983
H           17.36897624196936       16.26502740615460       25.97973206027788
H           14.52246186417033       15.78482266279959       24.86535061004501
H           15.00894241215918       17.27243700014127       25.69306264302601
H           14.19945131684664       17.32343379621963       24.12310921681378
H           16.64710946925002       18.64041588615412       25.04943234545086
H           15.93126277071843       18.88836540547947       23.47095202699979
H           19.80971517384585       18.67985506285147       22.11453350209895
H           20.53800163472847       21.18144438483241       23.51396596864904
H           19.88246023214342       21.69278150922234       20.50685227551393
H           22.00665797316735       21.92882345054983       18.43569085157831
H           22.02136018932455       23.92077886577209       17.41819131689179
H           19.50773807482734       25.59887786074246       16.95565710871186
H           20.91273665128923       27.13419728499724       15.83154288262910
H           22.39841447019640       26.23426677263115       16.37862317434860
H           21.38783844007262       25.64403467566192       15.14319962181515
H           20.50859266385032       27.14853284410981       18.50939838155290
H           20.35175701732283       25.62702739907034       19.38169657825104
H           21.92277401420636       26.13379776309339       18.70069770105888
H           20.90568353106071       19.96042626834148       15.34119848546400
H           19.49659136042047       20.60511859416058       14.52009272804188
H           20.04927572119765       19.72906213961405       12.44892092268715
H           20.24544450580959       18.44544108998804       13.56188393346918
H           27.75286045634580       15.81386806595867       14.65265605360716
H           26.12900566188803       16.03316232288210       13.95451815869875
H           27.34987037233912       15.05126097193979       13.10599325413062
H           29.28302343062485       17.86245646553935       11.95475144610242
H           29.62006304476633       17.53414893658632       13.65833226998777
H           29.38747087575214       16.19299486678178       12.55893756435925
H           26.50634920194311       20.37548164984705       13.05249986568426
H           28.22814901036626       20.02245915830527       13.23806725773379
H           27.34241816977248       19.55723664495567       11.76818162678703
H           26.99348897212299       19.37648471957037       15.46015433754132
H           26.69066443599529       17.60531288886793       15.58956142272058
H           28.26243569919248       18.09851437117288       15.16970620473891
H           23.80572071276989       20.40843858145917       12.14799096494384
H           22.22539035286296       20.93711696381214       11.56376977996861
H           23.08192908975655       22.49354135376238       13.30667600996924
H           23.46788635015447       21.16617648284516       14.32892443126203
H           18.88845708501756       24.21669946884635       15.32101834791229
H           18.98406323970763       22.50134035151446       14.81435490391368
H           18.51731369943667       22.90689400047279       16.45415268051976
H           20.88744035999650       19.43735772202945       18.61214593363345
H           20.20728923949787       19.19395309656530       20.21448820885188
H           18.51985211626463       18.75822135302891       18.60990648581184
H           18.01978665291468       21.66835861063210       19.36608643354682
H           18.00589346936904       20.44498032751940       20.53086115662702
H           15.55152712846782       20.76585295109268       17.09321071245376
H           16.72944176949336       22.01183601815314       17.62576960900450
H           17.74048122928874       20.59915283197475       15.77816269221735
H           17.32748980031299       19.14255362028287       16.76783255779068
H           23.76432958620621       20.36440354664496       22.35279202769687
H           22.93104228116928       20.92165404046180       23.82514722585812
H           23.29538674841386       18.60668823064898       24.20942186504122
H           22.90502057766526       18.11801657579671       22.54839015893757
H           21.08074234332757       18.97388142087396       24.77559239422641
H           20.94759928149260       17.46404295637491       23.77116226159810
H           12.50974120504761       18.10649031805483       18.56393218643060
H           14.09012185908307       19.79296249313946       17.78075476054115
H           16.78613723710790       18.76327390041535       20.97361123029293
151
 energy: -221.286368143879 gnorm: 0.052906462171 xtb: 6.7.1 (edcfbbe)
C           11.57999311728102       15.99179493317465       25.03556128039033
N           12.01118927360918       13.41178462836777       23.75252264519594
O           10.36427567445905       15.86288124743404       22.96132783933788
C           11.70004635171680       15.82516470623811       23.51549593782310
N           13.24642546325253       16.18057636811556       20.52411241383122
O           17.95659485954700       18.44904642737844       23.40922268344683
C            9.91417370145629       17.17931450521368       22.68389374488897
N           20.48081422716346       20.62087272714015       22.64408025260201
O           22.16974976708087       17.34590273862669       14.05304070511380
C           12.43014838235808       14.52892018404643       23.16762060841882
N           21.75366816177660       20.65732700192923       22.05837506592418
O           22.58261453011369       22.18414094554638       16.16557056838064
C           12.67333958143487       12.28809192831768       23.53907821974758
N           21.07234178781659       22.12933959347536       18.84888290432148
O           19.19247840123301       23.37616941752991       18.89737164613740
C           13.79703190404684       12.19043122487095       22.73332964544237
N           20.59273081538277       23.22571424396063       16.01804528707500
O           18.88701405872936       20.31742451507139       17.36611609521326
C           14.26912045607088       13.34196159582270       22.14366530033411
N           22.11726568505109       19.25975101426080       12.85570729131669
O           23.01392859699179       20.85570035078795       20.19487787634794
C           13.56225008515774       14.53310416155611       22.32303853593424
N           27.58504831112397       17.12409903922259       12.96999941906140
O           18.66929068141095       20.10822031057706       24.75479612267717
C           14.01551580670909       15.70981773001850       21.56855093646712
N           16.44833257737722       20.46250058596457       18.96002865519758
C           11.97899799387899       15.63175853661525       20.07707748173739
C           12.08252730256747       14.54336541131518       18.99250373182136
C           15.15693281884439       16.46850361768724       21.72362024119428
C           16.29979318642309       16.15027357773568       22.65089221518792
C           16.30530061550641       16.80688082815792       24.06281290067150
C           17.36063351575683       16.06127920290512       24.89973002115907
C           14.93090332423549       16.77566473026546       24.73211088215532
C           16.67340958279672       18.29173137443427       24.02251085775488
C           18.82338261634883       19.33434411256904       23.84041866005034
C           20.10059396105313       19.25608149105027       22.99496106663883
C           21.91911515421187       20.90083134064038       20.75040365061394
C           20.67512403733748       21.21438037722510       19.89581030700560
C           20.30171712843501       23.14476180270099       18.43194261508231
C           20.92344058310676       23.94708798092526       17.26378905880141
C           20.55732112234299       25.44293427783670       17.18368835335698
C           21.35973952288661       26.15125991483500       16.07734264977195
C           20.85542212931376       26.11931937467151       18.52321206271365
C           21.53523432218515       22.39627886527193       15.54826558779471
C           21.35666569107285       21.68707370062804       14.19708546099529
C           20.57186934341948       20.39216630479102       14.40352510187729
C           20.71379991739237       19.40746501018825       13.23930199762265
C           22.78543686460511       18.23596319530572       13.45656649211501
C           24.23516908122791       18.20777428456954       13.37382310991531
C           25.44276926566170       18.13111468194531       13.38438394024214
C           26.90733126668709       18.30127162899622       13.54559307598261
C           27.19713781476817       15.93270498655082       13.71255996499215
C           29.02907452350407       17.19903635366149       12.78801743162749
C           27.27876497733219       19.62644293851744       12.85233029785021
C           27.22056853591426       18.39049914625438       15.05467800078633
C           22.74782740923811       20.50680672661260       12.43102326000619
C           22.74674377793842       21.49794664553424       13.58798692726105
C           19.18870141740871       23.22172445430678       15.62456080584241
C           20.20202107056997       19.84928735962995       19.35040045798869
C           18.82592062368371       19.81977803889349       18.69817154560707
C           17.78822422301721       20.62446434025280       19.48962279947764
C           16.50570707386019       20.93899542739241       17.57766359592887
C           17.60005937210324       20.20054858754115       16.78617206474904
C           22.84851105256489       20.24760680292527       22.92545386144490
C           22.63203486884002       18.79368808383159       23.35990962378854
C           21.18719232446126       18.54013657692134       23.81799663389532
C           15.06964703632258       17.50688914451269       20.74022605700614
C           13.85814913864196       17.31319304410083       20.03454290511224
C           13.49602358933651       18.20103568647948       19.02467066383303
C           14.38011029525062       19.18574142505741       18.64791265657307
C           15.62125184690372       19.38441052290380       19.30609389707603
C           15.91378699108044       18.56709868763067       20.39192508548254
F           20.64527867908105       22.51290666531917       13.29443722747835
H           12.53551105825713       15.98863608915632       25.54855877387322
H           11.07835796131451       16.92066693491446       25.30551566332943
H           10.96493097128837       15.17163269414671       25.39160757237032
H           12.25604207623472       16.64543002722038       23.04101478105787
H           10.17769965573346       17.48750980145673       21.66371720243137
H            8.83259514503747       17.20002827571565       22.79206464221501